<LesHouchesEvents version="1.0">
<header>
<MGVersion>
# MG    version    : 5.1.5.4
</MGVersion>
<MG5ProcCard>
import model mssm
define p u u~ d d~ s s~ c c~ b b~ g
define j p
define q p
define s1 ul ul~ ur ur~ dl dl~ dr dr~ sl sl~ sr sr~ cl cl~ cr cr~
define s2 b1 b1~ b2 b2~ t1 t1~ t2 t2~
define s3 b1 b1~ b2 b2~ t2 t2~
define sneu n1 n2 n3 n4
define sch x1+ x2+ x1- x2-
define sl+ el+ er+ mul+ mur+
define svl sve svm sve~ svm~
define sl- el- er- mul- mur-
define l e- mu- e+ mu+ ta- ta+
define vl ve~ vm~ vt~ ve vm vt
define all q l vl
generate p p > t1 t1~ @1
add process p p > t1 t1~ j @2
add process p p > t1 t1~ j j @3
output -f
</MG5ProcCard>
<MGProcCard>
# Begin PROCESS # This is TAG. Do not modify this line
 pp>T2tt    @0       # First Process
# # End PROCESS  # This is TAG. Do not modify this line
</MGProcCard>
<slha>
#
BLOCK STAUMIX  # Stau Mixing Matrix
  1  1     2.82487190E-01   # O_{11}
  1  2     9.59271071E-01   # O_{12}
  2  1     9.59271071E-01   # O_{21}
  2  2    -2.82487190E-01   # O_{22}
</slha>
<MGRunCard>
   1  =ickkw ! matching 
  30   = xqcut   ! minimum kt jet measure between partons
</MGRunCard>
<MGParamCMS>
5 = nqmatch    ! Max Jet Flavor
2 = maxjets    ! Largest number (inclusive ktMLM   matching multipl.)
0 = minjets    ! Smallest number of additional light flavour jets
5.0 = etaclmax   ! Maximum   pseudorapidity for particles to     cluster
</MGParamCMS>
</header>
<init>
    2212    2212  4.000000E+03  4.000000E+03     0     0 10042 10042     3     3
  6.237490E+00  2.068799E-02  1.000000E+00     4
  1.074950E+01  2.711738E-02  1.000000E+00     6
  1.040570E+01  2.669375E-02  1.000000E+00     7
</init>
<event>
     5     6  1.000000E+00  2.126507E+02  7.957747E-02  1.146070E-01
      21   -1    0    0  101  102  0.0000000000E+00  0.0000000000E+00  7.3870396753E+02  7.3870396753E+02  0.0000000000E+00 0. 9.
      21   -1    0    0  103  104  0.0000000000E+00  0.0000000000E+00 -1.9362612790E+02  1.9362612790E+02  0.0000000000E+00 0. 9.
 1000006    1    1    2  101    0 -1.5065590687E+02  2.1761064214E+01  2.3266853480E+02  3.4249874931E+02  2.0000000000E+02 0. 9.
-1000006    1    1    2    0  104 -2.3303398133E+00  8.8285957066E+01  3.3499634909E+02  4.0002799227E+02  2.0000000000E+02 0. 9.
      21    1    1    2  103  102  1.5298624668E+02 -1.1004702128E+02 -2.2587044257E+01  1.8980335386E+02  0.0000000000E+00 0. 9.
#  0.2126507E+03  0.2126507E+03  0.1884546E+03
# model T2tt_200_0  18.5245 
</event>
<event>
     5     6  1.000000E+00  2.777725E+02  7.957747E-02  1.104795E-01
       2    -1    0    0  101    0  0.0000000000E+00  0.0000000000E+00  9.6253037598E+02  9.6253037598E+02  0.0000000000E+00 0. 9.
      21   -1    0    0  102  103  0.0000000000E+00  0.0000000000E+00 -2.1853389584E+02  2.1853389584E+02  0.0000000000E+00 0. 9.
 1000006    1    1    2  101    0  1.3675410085E+02  1.7033652337E+02  1.1339449108E+02  3.1713487020E+02  2.0000000000E+02 0. 9.
-1000006    1    1    2    0  103  4.5780547806E+01 -2.0445599078E+02  1.0768837310E+02  3.0902248531E+02  2.0000000000E+02 0. 9.
       2    1    1    2  102    0 -1.8253464865E+02  3.4119467416E+01  5.2291361596E+02  5.5490691632E+02  0.0000000000E+00 0. 9.
#  0.2777725E+03  0.2777725E+03  0.1856961E+03
# model T2tt_200_0  18.5245 
</event>
<event>
     6     4  1.000000E+00  4.639466E+02  7.957747E-02  1.033339E-01
      21    -1    0    0  101  102  0.0000000000E+00  0.0000000000E+00  1.0152858945E+03  1.0152858945E+03  0.0000000000E+00 0. 9.
      21   -1    0    0  103  104  0.0000000000E+00  0.0000000000E+00 -3.2360581292E+02  3.2360581292E+02  0.0000000000E+00 0. 9.
 1000006    1    1    2  103    0  2.3826796060E+01 -6.9219908636E+01  1.0061776291E+02  2.3554839455E+02  2.0000000000E+02 0. 9.
-1000006    1    1    2    0  102 -4.0438574081E+02 -1.1139325504E+02  4.6600485609E+02  6.5810091212E+02  2.0000000000E+02 0. 9.
      21    1    1    2  101  105  6.8998919913E+01  2.7619251867E+01  5.1542262696E+01  9.0444894089E+01  0.0000000000E+00 0. 9.
      21    1    1    2  105  104  3.1156002484E+02  1.5299391181E+02  7.3515199902E+01  3.5479750668E+02  0.0000000000E+00 0. 9.
#  0.2129768E+03  0.4639466E+03  0.3322416E+02  0.4247372E+03
# model T2tt_200_0  18.5245 
</event>
<event>
     6     4  1.000000E+00  2.992415E+02  7.957747E-02  1.093818E-01
      21    -1    0    0  101  102  0.0000000000E+00  0.0000000000E+00  5.5355227064E+02  5.5355227064E+02  0.0000000000E+00 0. 9.
      21   -1    0    0  103  104  0.0000000000E+00  0.0000000000E+00 -6.6086933514E+02  6.6086933514E+02  0.0000000000E+00 0. 9.
 1000006    1    1    2  103    0 -2.0793575245E+02  1.5559143672E+02 -4.2499408628E+02  5.3671775236E+02  2.0000000000E+02 0. 9.
-1000006    1    1    2    0  102  1.7233140426E+02 -1.2369462481E+01 -5.8828562989E+01  2.7076173348E+02  2.0000000000E+02 0. 9.
      21    1    1    2  101  105  2.2515194281E+01 -9.1780586281E+01  2.9419438373E+02  3.0899991166E+02  0.0000000000E+00 0. 9.
      21    1    1    2  105  104  1.3089153906E+01 -5.1441387955E+01  8.2311201043E+01  9.7942208276E+01  0.0000000000E+00 0. 9.
#  0.2992415E+03  0.2992415E+03  0.1544197E+03  0.3405897E+02
# model T2tt_200_0  18.5245 
</event>
<event>
     6     4  1.000000E+00  2.311846E+02  7.957747E-02  1.132831E-01
      21    -1    0    0  101  102  0.0000000000E+00  0.0000000000E+00  4.1155635574E+02  4.1155635574E+02  0.0000000000E+00 0. 9.
      21   -1    0    0  103  104  0.0000000000E+00  0.0000000000E+00 -4.8397479934E+02  4.8397479934E+02  0.0000000000E+00 0. 9.
 1000006    1    1    2  101    0  1.1557468078E+02  1.4669475922E+01  2.0052799964E+02  3.0624202683E+02  2.0000000000E+02 0. 9.
-1000006    1    1    2    0  105 -1.0384145810E+02  1.5036627207E+02 -3.1222370357E+01  2.7270478655E+02  2.0000000000E+02 0. 9.
      21    1    1    2  105  104  3.1350976463E+01  2.4970935516E+00 -3.7919983650E+01  4.9265041981E+01  0.0000000000E+00 0. 9.
      21    1    1    2  103  102 -4.3084199137E+01 -1.6753284154E+02 -2.0380408923E+02  2.6731929971E+02  0.0000000000E+00 0. 9.
#  0.2311846E+03  0.2311846E+03  0.3145027E+02  0.1682675E+03
# model T2tt_200_0  18.5245 
</event>
<event>
     5     6  1.000000E+00  2.242273E+02  7.957747E-02  1.137636E-01
      21    -1    0    0  101  102  0.0000000000E+00  0.0000000000E+00  1.7436455188E+02  1.7436455188E+02  0.0000000000E+00 0. 9.
      21   -1    0    0  103  101  0.0000000000E+00  0.0000000000E+00 -4.2661517318E+02  4.2661517318E+02  0.0000000000E+00 0. 9.
 1000006    1    1    2  104    0  6.0056964414E+01 -4.8352894358E+01 -1.5398490549E+02  2.6392459621E+02  2.0000000000E+02 0. 9.
-1000006    1    1    2    0  102 -9.7457100559E+01  6.0994035904E+01  5.0030166543E-01  2.3069115537E+02  2.0000000000E+02 0. 9.
      21    1    1    2  103  104  3.7400136145E+01 -1.2641141546E+01 -9.8766017484E+01  1.0636397347E+02  0.0000000000E+00 0. 9.
#  0.2242273E+03  0.2242273E+03  0.3947871E+02
# model T2tt_200_0  18.5245 
</event>
<event>
     6     4  1.000000E+00  2.216932E+02  7.957747E-02  1.139434E-01
      21    -1    0    0  101  102  0.0000000000E+00  0.0000000000E+00  3.1224032171E+02  3.1224032171E+02  0.0000000000E+00 0. 9.
      21   -1    0    0  103  104  0.0000000000E+00  0.0000000000E+00 -3.1253355736E+02  3.1253355736E+02  0.0000000000E+00 0. 9.
 1000006    1    1    2  103    0  2.1406185993E+01 -8.8164555725E+01 -9.0134336799E+01  2.3739294925E+02  2.0000000000E+02 0. 9.
-1000006    1    1    2    0  102 -4.1512204502E+00  1.0324452159E+02 -2.9781123191E+01  2.2707615280E+02  2.0000000000E+02 0. 9.
      21    1    1    2  101  105 -2.6728380266E+01 -4.6267290890E+01  1.1574165054E+02  1.2748018744E+02  0.0000000000E+00 0. 9.
      21    1    1    2  105  104  9.4734147228E+00  3.1187325021E+01  3.8805737921E+00  3.2824589586E+01  0.0000000000E+00 0. 9.
#  0.2216932E+03  0.2216932E+03  0.4041334E+02  0.3259440E+02
# model T2tt_200_0  18.5245 
</event>
<event>
     5     6  1.000000E+00  2.255932E+02  7.957747E-02  1.136678E-01
       2    -1    0    0  101    0  0.0000000000E+00  0.0000000000E+00  1.1276162095E+03  1.1276162095E+03  0.0000000000E+00 0. 9.
      21   -1    0    0  102  101  0.0000000000E+00  0.0000000000E+00 -5.4971938430E+02  5.4971938430E+02  0.0000000000E+00 0. 9.
 1000006    1    1    2  102    0  1.1872510287E+01 -7.3707356222E+01 -1.9908566002E+02  2.9190551706E+02  2.0000000000E+02 0. 9.
-1000006    1    1    2    0  103 -1.3486101289E+02  8.4609751576E+01 -2.4614972876E+02  3.5487461424E+02  2.0000000000E+02 0. 9.
       2    1    1    2  103    0  1.2298850260E+02 -1.0902395354E+01  1.0231322140E+03  1.0305554625E+03  0.0000000000E+00 0. 9.
#  0.2255932E+03  0.2255932E+03  0.1234708E+03
# model T2tt_200_0  18.5245 
</event>
<event>
     4     7  1.000000E+00  2.512129E+02  7.957747E-02  1.119969E-01
      21    -1    0    0  101  102  0.0000000000E+00  0.0000000000E+00  1.9893660493E+02  1.9893660493E+02  0.0000000000E+00 0. 9.
      21   -1    0    0  102  103  0.0000000000E+00  0.0000000000E+00 -4.3982249011E+02  4.3982249011E+02  0.0000000000E+00 0. 9.
 1000006    1    1    2  101    0  1.3050527772E+02 -7.7950632077E+01  4.8176179308E+01  2.5579068162E+02  2.0000000000E+02 0. 9.
-1000006    1    1    2    0  103 -1.3050527772E+02  7.7950632077E+01 -2.8906206449E+02  3.8296841342E+02  2.0000000000E+02 0. 9.
#  0.2512129E+03  0.2512129E+03
# model T2tt_200_0  18.5245 
</event>
<event>
     4     7  1.000000E+00  2.460435E+02  7.957747E-02  1.123160E-01
      21    -1    0    0  101  102  0.0000000000E+00  0.0000000000E+00  1.0197547461E+02  1.0197547461E+02  0.0000000000E+00 0. 9.
      21   -1    0    0  102  103  0.0000000000E+00  0.0000000000E+00 -6.6710676391E+02  6.6710676391E+02  0.0000000000E+00 0. 9.
 1000006    1    1    2  101    0 -4.2483328444E+01  1.3686702019E+02 -1.5495983052E+02  2.9077476418E+02  2.0000000000E+02 0. 9.
-1000006    1    1    2    0  103  4.2483328444E+01 -1.3686702019E+02 -4.1017145878E+02  4.7830747434E+02  2.0000000000E+02 0. 9.
#  0.2460435E+03  0.2460435E+03
# model T2tt_200_0  18.5245 
</event>
<event>
     5     6  1.000000E+00  2.058839E+02  7.957747E-02  1.151276E-01
      21    -1    0    0  101  102  0.0000000000E+00  0.0000000000E+00  1.1096427788E+02  1.1096427788E+02  0.0000000000E+00 0. 9.
      21   -1    0    0  103  101  0.0000000000E+00  0.0000000000E+00 -5.7809817563E+02  5.7809817563E+02  0.0000000000E+00 0. 9.
 1000006    1    1    2  103    0 -2.3858349887E+01  4.8889256144E+01 -3.0639061153E+02  3.6991159357E+02  2.0000000000E+02 0. 9.
-1000006    1    1    2    0  104 -3.3876500042E+01 -4.8732433685E+01 -1.5736636069E+02  2.6131712310E+02  2.0000000000E+02 0. 9.
      21    1    1    2  104  102  5.7734849929E+01 -1.5682245868E-01 -3.3769255206E+00  5.7833736829E+01  0.0000000000E+00 0. 9.
#  0.2058839E+03  0.2058839E+03  0.5773506E+02
# model T2tt_200_0  18.5245 
</event>
<event>
     5     6  1.000000E+00  2.507442E+02  7.957747E-02  1.120255E-01
      21    -1    0    0  101  102  0.0000000000E+00  0.0000000000E+00  6.9806291768E+01  6.9806291768E+01  0.0000000000E+00 0. 9.
      21   -1    0    0  103  101  0.0000000000E+00  0.0000000000E+00 -1.3914395724E+03  1.3914395724E+03  0.0000000000E+00 0. 9.
 1000006    1    1    2  104    0  2.0348215671E+02  1.9579359706E+01 -7.2769546916E+02  7.8187533230E+02  2.0000000000E+02 0. 9.
-1000006    1    1    2    0  102 -1.2193900809E+02 -2.5009699901E+01 -3.4821837896E+02  4.2041722875E+02  2.0000000000E+02 0. 9.
      21    1    1    2  103  104 -8.1543148623E+01  5.4303401947E+00 -2.4571943254E+02  2.5895330315E+02  0.0000000000E+00 0. 9.
#  0.2507442E+03  0.2507442E+03  0.8172376E+02
# model T2tt_200_0  18.5245 
</event>
<event>
     4     7  1.000000E+00  2.180777E+02  7.957747E-02  1.142045E-01
      21    -1    0    0  101  102  0.0000000000E+00  0.0000000000E+00  2.5370299974E+02  2.5370299974E+02  0.0000000000E+00 0. 9.
      21   -1    0    0  103  101  0.0000000000E+00  0.0000000000E+00 -2.6117587459E+02  2.6117587459E+02  0.0000000000E+00 0. 9.
 1000006    1    1    2  103    0  8.0770306190E+01 -3.2156741511E+01 -1.4051050350E+02  2.5942455547E+02  2.0000000000E+02 0. 9.
-1000006    1    1    2    0  102 -8.0770306190E+01  3.2156741511E+01  1.3303762865E+02  2.5545431886E+02  2.0000000000E+02 0. 9.
#  0.2180777E+03  0.2180777E+03
# model T2tt_200_0  18.5245 
</event>
<event>
     4     7  1.000000E+00  2.570410E+02  7.957747E-02  1.116470E-01
      21    -1    0    0  101  102  0.0000000000E+00  0.0000000000E+00  5.4290294649E+02  5.4290294649E+02  0.0000000000E+00 0. 9.
      21   -1    0    0  102  103  0.0000000000E+00  0.0000000000E+00 -1.2570310992E+02  1.2570310992E+02  0.0000000000E+00 0. 9.
 1000006    1    1    2  101    0 -2.8677465796E+00  1.6143678730E+02  1.4892542339E+02  2.9706706649E+02  2.0000000000E+02 0. 9.
-1000006    1    1    2    0  103  2.8677465796E+00 -1.6143678730E+02  2.6827441318E+02  3.7153898992E+02  2.0000000000E+02 0. 9.
#  0.2570410E+03  0.2570410E+03
# model T2tt_200_0  18.5245 
</event>
<event>
     6     4  1.000000E+00  2.150808E+02  7.957747E-02  1.144251E-01
      21    -1    0    0  101  102  0.0000000000E+00  0.0000000000E+00  1.7192454757E+03  1.7192454757E+03  0.0000000000E+00 0. 9.
      21   -1    0    0  103  104  0.0000000000E+00  0.0000000000E+00 -1.1711004970E+02  1.1711004970E+02  0.0000000000E+00 0. 9.
 1000006    1    1    2  105    0 -7.7380926676E+01  1.3709351138E+01  5.3144989085E+02  5.7324928313E+02  2.0000000000E+02 0. 9.
-1000006    1    1    2    0  102  6.7899186996E+01 -4.6848186658E+01  7.9156118825E+02  8.2059378923E+02  2.0000000000E+02 0. 9.
      21    1    1    2  101  104  5.4510507134E+01  1.8021395939E+02  1.3449559360E+02  2.3138178676E+02  0.0000000000E+00 0. 9.
      21    1    1    2  103  105 -4.5028767453E+01 -1.4707512387E+02  1.4462875327E+02  2.1113066625E+02  0.0000000000E+00 0. 9.
#  0.2150808E+03  0.2150808E+03  0.9942458E+02  0.1538138E+03
# model T2tt_200_0  18.5245 
</event>
<event>
     6     4  1.000000E+00  2.051248E+02  7.957747E-02  1.151874E-01
      21    -1    0    0  101  102  0.0000000000E+00  0.0000000000E+00  5.2056487781E+02  5.2056487781E+02  0.0000000000E+00 0. 9.
      21   -1    0    0  103  104  0.0000000000E+00  0.0000000000E+00 -2.3389377691E+02  2.3389377691E+02  0.0000000000E+00 0. 9.
 1000006    1    1    2  101    0 -1.6427673269E+00  5.3995528523E+01 -5.5142251060E+01  2.1438023145E+02  2.0000000000E+02 0. 9.
-1000006    1    1    2    0  104  2.3846620605E+00  3.4525672275E+00  1.4770372103E+02  2.4866442456E+02  2.0000000000E+02 0. 9.
      21    1    1    2  103  105  2.3156786174E+01  2.0711714738E+01 -3.5804607935E+01  4.7404449398E+01  0.0000000000E+00 0. 9.
      21    1    1    2  105  102 -2.3898680908E+01 -7.8159810489E+01  2.2991423886E+02  2.4400954931E+02  0.0000000000E+00 0. 9.
#  0.2051248E+03  0.2051248E+03  0.3106786E+02  0.8075994E+02
# model T2tt_200_0  18.5245 
</event>
<event>
     5     6  1.000000E+00  2.900409E+02  7.957747E-02  1.098396E-01
      21    -1    0    0  101  102  0.0000000000E+00  0.0000000000E+00  4.6466615253E+02  4.6466615253E+02  0.0000000000E+00 0. 9.
      21   -1    0    0  103  104  0.0000000000E+00  0.0000000000E+00 -2.6478459862E+02  2.6478459862E+02  0.0000000000E+00 0. 9.
 1000006    1    1    2  103    0  2.6597784744E+02  4.8403255421E+00  5.8552850563E+01  3.3792910556E+02  2.0000000000E+02 0. 9.
-1000006    1    1    2    0  102 -1.7787488208E+02  1.2319965192E+00  1.4244586930E+02  3.0320260086E+02  2.0000000000E+02 0. 9.
      21    1    1    2  101  104 -8.8102965356E+01 -6.0723220613E+00 -1.1171659463E+00  8.8319044715E+01  0.0000000000E+00 0. 9.
#  0.2900409E+03  0.2900409E+03  0.8831198E+02
# model T2tt_200_0  18.5245 
</event>
<event>
     4     7  1.000000E+00  2.284210E+02  7.957747E-02  1.134718E-01
      21    -1    0    0  101  102  0.0000000000E+00  0.0000000000E+00  6.0411242952E+01  6.0411242952E+01  0.0000000000E+00 0. 9.
      21   -1    0    0  103  101  0.0000000000E+00  0.0000000000E+00 -8.7317663387E+02  8.7317663387E+02  0.0000000000E+00 0. 9.
 1000006    1    1    2  103    0 -6.0986679022E+01  9.1960666307E+01 -3.5770840545E+02  4.2441894691E+02  2.0000000000E+02 0. 9.
-1000006    1    1    2    0  102  6.0986679022E+01 -9.1960666307E+01 -4.5505698547E+02  5.0916892991E+02  2.0000000000E+02 0. 9.
#  0.2284210E+03  0.2284210E+03
# model T2tt_200_0  18.5245 
</event>
<event>
     5     6  1.000000E+00  2.143523E+02  7.957747E-02  1.144794E-01
      21    -1    0    0  101  102  0.0000000000E+00  0.0000000000E+00  1.7060174981E+03  1.7060174981E+03  0.0000000000E+00 0. 9.
      21   -1    0    0  103  101  0.0000000000E+00  0.0000000000E+00 -3.9622403684E+01  3.9622403684E+01  0.0000000000E+00 0. 9.
 1000006    1    1    2  104    0 -8.5585087224E+01 -2.4195891708E+01  8.6666226578E+02  8.9387567998E+02  2.0000000000E+02 0. 9.
-1000006    1    1    2    0  102  6.7568566266E+01 -8.9049783334E+00  7.8213278442E+02  8.1017066242E+02  2.0000000000E+02 0. 9.
      21    1    1    2  103  104  1.8016520958E+01  3.3100870041E+01  1.7600044200E+01  4.1593559366E+01  0.0000000000E+00 0. 9.
#  0.2143523E+03  0.2143523E+03  0.3768637E+02
# model T2tt_200_0  18.5245 
</event>
<event>
     5     6  1.000000E+00  2.215693E+02  7.957747E-02  1.139523E-01
      21    -1    0    0  101  102  0.0000000000E+00  0.0000000000E+00  9.4231090475E+01  9.4231090475E+01  0.0000000000E+00 0. 9.
      21   -1    0    0  103  104  0.0000000000E+00  0.0000000000E+00 -8.3513073943E+02  8.3513073943E+02  0.0000000000E+00 0. 9.
 1000006    1    1    2  103    0 -3.9930311415E+01 -4.7984407252E+01 -2.5388176102E+02  3.2916998904E+02  2.0000000000E+02 0. 9.
-1000006    1    1    2    0  102  1.3889944241E+02  3.5671101708E+01 -2.9806206483E+02  3.8653134037E+02  2.0000000000E+02 0. 9.
      21    1    1    2  101  104 -9.8969130994E+01  1.2313305544E+01 -1.8895582311E+02  2.1366050049E+02  0.0000000000E+00 0. 9.
#  0.2215693E+03  0.2215693E+03  0.9973217E+02
# model T2tt_200_0  18.5245 
</event>
<event>
     5     6  1.000000E+00  2.638359E+02  7.957747E-02  1.112515E-01
      21    -1    0    0  101  102  0.0000000000E+00  0.0000000000E+00  2.4175447970E+02  2.4175447970E+02  0.0000000000E+00 0. 9.
       1   -1    0    0  102    0  0.0000000000E+00  0.0000000000E+00 -9.4625449839E+02  9.4625449839E+02  0.0000000000E+00 0. 9.
 1000006    1    1    2  101    0 -8.4004598979E+01  1.5417889759E+02  9.8587592002E+00  2.6631766792E+02  2.0000000000E+02 0. 9.
-1000006    1    1    2    0  103 -1.5140508724E+01 -1.8431295252E+02 -8.7178125668E+01  2.8600791084E+02  2.0000000000E+02 0. 9.
       1    1    1    2  103    0  9.9145107703E+01  3.0134054922E+01 -6.2718065222E+02  6.3568339932E+02  0.0000000000E+00 0. 9.
#  0.2638359E+03  0.2638359E+03  0.1036234E+03
# model T2tt_200_0  18.5245 
</event>
<event>
     6     4  1.000000E+00  2.064730E+02  7.957747E-02  1.150814E-01
       2    -1    0    0  101    0  0.0000000000E+00  0.0000000000E+00  2.6425936748E+02  2.6425936748E+02  0.0000000000E+00 0. 9.
      21   -1    0    0  102  103  0.0000000000E+00  0.0000000000E+00 -8.0829564496E+02  8.0829564496E+02  0.0000000000E+00 0. 9.
 1000006    1    1    2  101    0  1.3056914994E+02  8.0107195960E+01 -3.0591562815E+02  3.9629513914E+02  2.0000000000E+02 0. 9.
-1000006    1    1    2    0  103 -3.5748632629E+01  3.2450987722E+01  1.4821218852E+02  2.5357027461E+02  2.0000000000E+02 0. 9.
      21    1    1    2  102  104 -5.3994202122E+01 -5.8242724871E+01 -3.1213317535E+02  3.2207872953E+02  0.0000000000E+00 0. 9.
       2    1    1    2  104    0 -4.0826315190E+01 -5.4315458811E+01 -7.4199662505E+01  1.0061086916E+02  0.0000000000E+00 0. 9.
#  0.5057612E+03  0.5057612E+03  0.1091943E+03  0.6794819E+02
# model T2tt_200_0  18.5245 
</event>
<event>
     5     6  1.000000E+00  2.147475E+02  7.957747E-02  1.144499E-01
      21    -1    0    0  101  102  0.0000000000E+00  0.0000000000E+00  1.7680888531E+02  1.7680888531E+02  0.0000000000E+00 0. 9.
      21   -1    0    0  103  104  0.0000000000E+00  0.0000000000E+00 -3.4317704107E+02  3.4317704107E+02  0.0000000000E+00 0. 9.
 1000006    1    1    2  103    0 -4.7354972496E+01  3.9300508327E+01 -3.6451783050E+01  2.1240469831E+02  2.0000000000E+02 0. 9.
-1000006    1    1    2    0  102  5.2563956721E+01 -8.7653794583E+01 -8.1431618520E+01  2.3890848822E+02  2.0000000000E+02 0. 9.
      21    1    1    2  101  104 -5.2089842250E+00  4.8353286257E+01 -4.8484754193E+01  6.8672739844E+01  0.0000000000E+00 0. 9.
#  0.2147475E+03  0.2147475E+03  0.4863305E+02
# model T2tt_200_0  18.5245 
</event>
<event>
     6     4  1.000000E+00  3.104764E+02  7.957747E-02  1.088463E-01
      21    -1    0    0  101  102  0.0000000000E+00  0.0000000000E+00  5.7258863100E+02  5.7258863100E+02  0.0000000000E+00 0. 9.
      21   -1    0    0  103  104  0.0000000000E+00  0.0000000000E+00 -3.6129722980E+02  3.6129722980E+02  0.0000000000E+00 0. 9.
 1000006    1    1    2  103    0  1.5599901041E+02 -1.2707518580E+02 -4.6608662221E+01  2.8749984607E+02  2.0000000000E+02 0. 9.
-1000006    1    1    2    0  102 -3.6230804951E+01  2.8261058323E+02  2.1365697302E+02  4.0844915853E+02  2.0000000000E+02 0. 9.
      21    1    1    2  101  105 -7.8799597508E+01 -3.2286888906E+01  6.4049713050E+01  1.0655602050E+02  0.0000000000E+00 0. 9.
      21    1    1    2  105  104 -4.0968607949E+01 -1.2324850853E+02 -1.9806622648E+01  1.3138083571E+02  0.0000000000E+00 0. 9.
#  0.3104764E+03  0.3104764E+03  0.8515762E+02  0.1364332E+03
# model T2tt_200_0  18.5245 
</event>
<event>
     5     6  1.000000E+00  3.114660E+02  7.957747E-02  1.088004E-01
      21    -1    0    0  101  102  0.0000000000E+00  0.0000000000E+00  1.1617300153E+02  1.1617300153E+02  0.0000000000E+00 0. 9.
      21   -1    0    0  102  103  0.0000000000E+00  0.0000000000E+00 -1.1016658497E+03  1.1016658497E+03  0.0000000000E+00 0. 9.
 1000006    1    1    2  104    0 -4.0493925765E+01 -2.0917003222E+02 -2.9139079903E+02  4.1267476075E+02  2.0000000000E+02 0. 9.
-1000006    1    1    2    0  103  5.4461328970E+01  2.4811467001E+02 -6.9192605830E+02  7.6373332779E+02  2.0000000000E+02 0. 9.
      21    1    1    2  101  104 -1.3967403205E+01 -3.8944637787E+01 -2.1759908862E+00  4.1430762737E+01  0.0000000000E+00 0. 9.
#  0.3114660E+03  0.3114660E+03  0.4137358E+02
# model T2tt_200_0  18.5245 
</event>
<event>
     5     6  1.000000E+00  2.121540E+02  7.957747E-02  1.146444E-01
      21    -1    0    0  101  102  0.0000000000E+00  0.0000000000E+00  5.6006901469E+02  5.6006901469E+02  0.0000000000E+00 0. 9.
      21   -1    0    0  103  104  0.0000000000E+00  0.0000000000E+00 -1.3588151596E+02  1.3588151596E+02  0.0000000000E+00 0. 9.
 1000006    1    1    2  103    0  3.7192446902E+01  4.7458471353E+01  8.3195222614E+01  2.2484890410E+02  2.0000000000E+02 0. 9.
-1000006    1    1    2    0  102 -8.3060998357E+01 -1.6840765381E+00  3.4370316901E+02  4.0624356481E+02  2.0000000000E+02 0. 9.
      21    1    1    2  101  104  4.5868551454E+01 -4.5774394815E+01 -2.7108928930E+00  6.4858061746E+01  0.0000000000E+00 0. 9.
#  0.2121540E+03  0.2121540E+03  0.6480138E+02
# model T2tt_200_0  18.5245 
</event>
<event>
     4     7  1.000000E+00  2.045353E+02  7.957747E-02  1.152340E-01
      21    -1    0    0  101  102  0.0000000000E+00  0.0000000000E+00  1.3883813733E+02  1.3883813733E+02  0.0000000000E+00 0. 9.
      21   -1    0    0  102  103  0.0000000000E+00  0.0000000000E+00 -3.0284678990E+02  3.0284678990E+02  0.0000000000E+00 0. 9.
 1000006    1    1    2  101    0  3.0901871289E+01 -2.9660698221E+01 -6.6322876515E+01  2.1501954938E+02  2.0000000000E+02 0. 9.
-1000006    1    1    2    0  103 -3.0901871289E+01  2.9660698221E+01 -9.7685776053E+01  2.2666537784E+02  2.0000000000E+02 0. 9.
#  0.2045353E+03  0.2045353E+03
# model T2tt_200_0  18.5245 
</event>
<event>
     5     6  1.000000E+00  2.447550E+02  7.957747E-02  1.123969E-01
      21    -1    0    0  101  102  0.0000000000E+00  0.0000000000E+00  6.7616602488E+02  6.7616602488E+02  0.0000000000E+00 0. 9.
      21   -1    0    0  102  103  0.0000000000E+00  0.0000000000E+00 -2.4810465871E+02  2.4810465871E+02  0.0000000000E+00 0. 9.
 1000006    1    1    2  104    0 -8.1432988416E+01 -1.3246024877E+02 -4.1946539942E+00  2.5336662020E+02  2.0000000000E+02 0. 9.
-1000006    1    1    2    0  103  8.0472046614E+01  9.9450714030E+01  2.7327006070E-02  2.3741565988E+02  2.0000000000E+02 0. 9.
      21    1    1    2  101  104  9.6094180239E-01  3.3009534743E+01  4.3222869316E+02  4.3348840352E+02  0.0000000000E+00 0. 9.
#  0.2447550E+03  0.2447550E+03  0.3302352E+02
# model T2tt_200_0  18.5245 
</event>
<event>
     4     7  1.000000E+00  2.224739E+02  7.957747E-02  1.138877E-01
      21    -1    0    0  101  102  0.0000000000E+00  0.0000000000E+00  3.0052485599E+02  3.0052485599E+02  0.0000000000E+00 0. 9.
      21   -1    0    0  103  101  0.0000000000E+00  0.0000000000E+00 -1.6769745240E+02  1.6769745240E+02  0.0000000000E+00 0. 9.
 1000006    1    1    2  103    0 -3.4784526047E+01 -9.1020068122E+01  3.5082636381E+01  2.2522301709E+02  2.0000000000E+02 0. 9.
-1000006    1    1    2    0  102  3.4784526047E+01  9.1020068122E+01  9.7744767210E+01  2.4299929130E+02  2.0000000000E+02 0. 9.
#  0.2224739E+03  0.2224739E+03
# model T2tt_200_0  18.5245 
</event>
<event>
     5     6  1.000000E+00  2.289467E+02  7.957747E-02  1.134356E-01
      21    -1    0    0  101  102  0.0000000000E+00  0.0000000000E+00  6.4308153776E+02  6.4308153776E+02  0.0000000000E+00 0. 9.
      21   -1    0    0  103  104  0.0000000000E+00  0.0000000000E+00 -1.5673900665E+02  1.5673900665E+02  0.0000000000E+00 0. 9.
 1000006    1    1    2  101    0  9.4188813239E+01 -2.0745733041E+01  2.7916761717E+02  3.5670222379E+02  2.0000000000E+02 0. 9.
-1000006    1    1    2    0  104 -8.5360441857E+01 -1.1854609402E+02  9.9786383008E+01  2.6701480048E+02  2.0000000000E+02 0. 9.
      21    1    1    2  103  102 -8.8283713823E+00  1.3929182706E+02  1.0738853093E+02  1.7610352014E+02  0.0000000000E+00 0. 9.
#  0.2289467E+03  0.2289467E+03  0.1395713E+03
# model T2tt_200_0  18.5245 
</event>
<event>
     5     6  1.000000E+00  2.390834E+02  7.957747E-02  1.127595E-01
      21    -1    0    0  101  102  0.0000000000E+00  0.0000000000E+00  9.8943206451E+02  9.8943206451E+02  0.0000000000E+00 0. 9.
      21   -1    0    0  103  101  0.0000000000E+00  0.0000000000E+00 -4.8662692822E+02  4.8662692822E+02  0.0000000000E+00 0. 9.
 1000006    1    1    2  104    0  1.4136975926E+02  1.5726736370E+01  7.1726550410E+02  7.5809138132E+02  2.0000000000E+02 0. 9.
-1000006    1    1    2    0  102 -8.8751423792E+01 -7.6149892185E+01  1.9371962166E+02  3.0199820053E+02  2.0000000000E+02 0. 9.
      21    1    1    2  103  104 -5.2618335472E+01  6.0423155815E+01 -4.0817998947E+02  4.1596941088E+02  0.0000000000E+00 0. 9.
#  0.2390834E+03  0.2390834E+03  0.8012270E+02
# model T2tt_200_0  18.5245 
</event>
<event>
     6     4  1.000000E+00  3.037576E+02  7.957747E-02  1.091635E-01
      21    -1    0    0  101  102  0.0000000000E+00  0.0000000000E+00  7.5193016518E+02  7.5193016518E+02  0.0000000000E+00 0. 9.
       1   -1    0    0  103    0  0.0000000000E+00  0.0000000000E+00 -9.3553530865E+02  9.3553530865E+02  0.0000000000E+00 0. 9.
 1000006    1    1    2  101    0 -1.3142172303E+02  1.5537865028E+02  3.9198153654E+02  4.8483370266E+02  2.0000000000E+02 0. 9.
-1000006    1    1    2    0  104  1.4126505376E+02 -3.3463428229E+02 -3.6464811259E+01  4.1625184775E+02  2.0000000000E+02 0. 9.
      21    1    1    2  103  102 -3.6935112146E+01  1.6177852012E+02  6.7323604085E+01  1.7907808283E+02  0.0000000000E+00 0. 9.
       1    1    1    2  104    0  2.7091781414E+01  1.7477111883E+01 -6.0644547284E+02  6.0730184059E+02  0.0000000000E+00 0. 9.
#  0.3037576E+03  0.3037576E+03  0.1678919E+03  0.3223995E+02
# model T2tt_200_0  18.5245 
</event>
<event>
     5     6  1.000000E+00  2.456321E+02  7.957747E-02  1.123418E-01
      21    -1    0    0  101  102  0.0000000000E+00  0.0000000000E+00  6.5257816150E+02  6.5257816150E+02  0.0000000000E+00 0. 9.
      21   -1    0    0  103  104  0.0000000000E+00  0.0000000000E+00 -7.1370407790E+02  7.1370407790E+02  0.0000000000E+00 0. 9.
 1000006    1    1    2  103    0  7.7830014062E+01 -1.2532610466E+02 -5.7475642512E+02  6.2618614789E+02  2.0000000000E+02 0. 9.
-1000006    1    1    2    0  102 -1.0224710533E+02  7.4500092446E+01  1.3757385895E+01  2.3705273673E+02  2.0000000000E+02 0. 9.
      21    1    1    2  101  104  2.4417091265E+01  5.0826012216E+01  4.9987312283E+02  5.0304335478E+02  0.0000000000E+00 0. 9.
#  0.2456321E+03  0.2456321E+03  0.5638686E+02
# model T2tt_200_0  18.5245 
</event>
<event>
     5     6  1.000000E+00  3.285116E+02  7.957747E-02  1.080362E-01
      21    -1    0    0  101  102  0.0000000000E+00  0.0000000000E+00  5.4175175239E+02  5.4175175239E+02  0.0000000000E+00 0. 9.
      21   -1    0    0  103  104  0.0000000000E+00  0.0000000000E+00 -3.3891702826E+02  3.3891702826E+02  0.0000000000E+00 0. 9.
 1000006    1    1    2  101    0  2.5468347106E+02  1.3395769627E+01 -1.2480351687E+02  3.4730251208E+02  2.0000000000E+02 0. 9.
-1000006    1    1    2    0  104 -2.7760778707E+02  4.7384631422E+01  2.2612770896E+02  4.1285000605E+02  2.0000000000E+02 0. 9.
      21    1    1    2  103  102  2.2924316011E+01 -6.0780401049E+01  1.0151053203E+02  1.2051626251E+02  0.0000000000E+00 0. 9.
#  0.3285116E+03  0.3285116E+03  0.6495984E+02
# model T2tt_200_0  18.5245 
</event>
<event>
     4     7  1.000000E+00  2.106616E+02  7.957747E-02  1.147578E-01
      21    -1    0    0  101  102  0.0000000000E+00  0.0000000000E+00  1.8289361316E+02  1.8289361316E+02  0.0000000000E+00 0. 9.
      21   -1    0    0  103  101  0.0000000000E+00  0.0000000000E+00 -2.4391395730E+02  2.4391395730E+02  0.0000000000E+00 0. 9.
 1000006    1    1    2  103    0  4.9440580395E+01  4.3976614028E+01 -4.5899528121E+01  2.1560398942E+02  2.0000000000E+02 0. 9.
-1000006    1    1    2    0  102 -4.9440580395E+01 -4.3976614028E+01 -1.5120816021E+01  2.1120358105E+02  2.0000000000E+02 0. 9.
#  0.2106616E+03  0.2106616E+03
# model T2tt_200_0  18.5245 
</event>
<event>
     5     6  1.000000E+00  2.137516E+02  7.957747E-02  1.145243E-01
      21    -1    0    0  101  102  0.0000000000E+00  0.0000000000E+00  2.5157643905E+02  2.5157643905E+02  0.0000000000E+00 0. 9.
      21   -1    0    0  103  104  0.0000000000E+00  0.0000000000E+00 -6.2599952060E+02  6.2599952060E+02  0.0000000000E+00 0. 9.
 1000006    1    1    2  103    0  9.6710131757E+01  1.2916296642E+01 -3.0974961016E+02  3.8139808770E+02  2.0000000000E+02 0. 9.
-1000006    1    1    2    0  102  7.1234444907E+01  1.1931216177E+02 -1.2545811186E+02  2.7395159412E+02  2.0000000000E+02 0. 9.
      21    1    1    2  101  104 -1.6794457666E+02 -1.3222845841E+02  6.0784640477E+01  2.2222627784E+02  0.0000000000E+00 0. 9.
#  0.2065802E+03  0.2137516E+03  0.2137516E+03
# model T2tt_200_0  18.5245 
</event>
<event>
     6     4  1.000000E+00  2.355973E+02  7.957747E-02  1.129878E-01
      21    -1    0    0  101  102  0.0000000000E+00  0.0000000000E+00  6.8735999695E+02  6.8735999695E+02  0.0000000000E+00 0. 9.
      21   -1    0    0  102  103  0.0000000000E+00  0.0000000000E+00 -2.8303126896E+02  2.8303126896E+02  0.0000000000E+00 0. 9.
 1000006    1    1    2  101    0 -5.4814233024E+01  1.2302244596E+02  4.4323624627E+02  5.0457654757E+02  2.0000000000E+02 0. 9.
-1000006    1    1    2    0  104  1.4388497119E+02 -2.3421227129E+01  8.9921977493E+01  2.6331995908E+02  2.0000000000E+02 0. 9.
      21    1    1    2  104  105 -4.4041172251E+01 -5.5130990314E+01 -1.4826475136E+01  7.2103226774E+01  0.0000000000E+00 0. 9.
      21    1    1    2  105  103 -4.5029565917E+01 -4.4470228518E+01 -1.1400302064E+02  1.3039153249E+02  0.0000000000E+00 0. 9.
#  0.2355973E+03  0.2355973E+03  0.8757038E+02  0.6328715E+02
# model T2tt_200_0  18.5245 
</event>
<event>
     6     4  1.000000E+00  2.064224E+02  7.957747E-02  1.150854E-01
      21    -1    0    0  101  102  0.0000000000E+00  0.0000000000E+00  4.6451489103E+02  4.6451489103E+02  0.0000000000E+00 0. 9.
      21   -1    0    0  103  104  0.0000000000E+00  0.0000000000E+00 -1.8650762715E+02  1.8650762715E+02  0.0000000000E+00 0. 9.
 1000006    1    1    2  101    0  5.5246599060E+00  2.9467316709E+01  2.4853405380E+02  3.2041850839E+02  2.0000000000E+02 0. 9.
-1000006    1    1    2    0  104 -7.0258945017E+01 -4.8795567711E+01 -2.7373581063E+01  2.1924105392E+02  2.0000000000E+02 0. 9.
      21    1    1    2  103  105  2.0265491644E+01  3.4425860776E+01  3.2159760707E+00  4.0077082527E+01  0.0000000000E+00 0. 9.
      21    1    1    2  105  102  4.4468793467E+01 -1.5097609774E+01  5.3630815063E+01  7.1285873338E+01  0.0000000000E+00 0. 9.
#  0.2064224E+03  0.2064224E+03  0.3994784E+02  0.4743290E+02
# model T2tt_200_0  18.5245 
</event>
<event>
     5     6  1.000000E+00  2.339417E+02  7.957747E-02  1.130978E-01
      21    -1    0    0  101  102  0.0000000000E+00  0.0000000000E+00  6.5901337329E+02  6.5901337329E+02  0.0000000000E+00 0. 9.
      21   -1    0    0  103  104  0.0000000000E+00  0.0000000000E+00 -1.1891541519E+02  1.1891541519E+02  0.0000000000E+00 0. 9.
 1000006    1    1    2  101    0 -4.6164677083E+01 -9.3524444149E+01  3.0517904083E+02  3.7948945443E+02  2.0000000000E+02 0. 9.
-1000006    1    1    2    0  104  3.2313411810E+01  1.2715727609E+02  1.0095427310E+02  2.5962452639E+02  2.0000000000E+02 0. 9.
      21    1    1    2  103  102  1.3851265273E+01 -3.3632831942E+01  1.3396464418E+02  1.3881480766E+02  0.0000000000E+00 0. 9.
#  0.2339417E+03  0.2339417E+03  0.3637341E+02
# model T2tt_200_0  18.5245 
</event>
<event>
     5     6  1.000000E+00  2.005930E+02  7.957747E-02  1.155502E-01
      21    -1    0    0  101  102  0.0000000000E+00  0.0000000000E+00  2.1028165129E+02  2.1028165129E+02  0.0000000000E+00 0. 9.
      21   -1    0    0  103  104  0.0000000000E+00  0.0000000000E+00 -3.6953071540E+02  3.6953071540E+02  0.0000000000E+00 0. 9.
 1000006    1    1    2  103    0 -7.7733326912E+01  4.7360115536E+01 -2.7846879827E+01  2.2149695116E+02  2.0000000000E+02 0. 9.
-1000006    1    1    2    0  102 -2.9473047839E+01  9.6368509896E+00 -1.2249624804E+02  2.3657316042E+02  2.0000000000E+02 0. 9.
      21    1    1    2  101  104  1.0720637475E+02 -5.6996966526E+01 -8.9059362361E+00  1.2174225512E+02  0.0000000000E+00 0. 9.
#  0.2005930E+03  0.2005930E+03  0.1214161E+03
# model T2tt_200_0  18.5245 
</event>
<event>
     5     6  1.000000E+00  2.023463E+02  7.957747E-02  1.154086E-01
      21    -1    0    0  101  102  0.0000000000E+00  0.0000000000E+00  2.7035325223E+02  2.7035325223E+02  0.0000000000E+00 0. 9.
      21   -1    0    0  103  101  0.0000000000E+00  0.0000000000E+00 -5.3882634479E+02  5.3882634479E+02  0.0000000000E+00 0. 9.
 1000006    1    1    2  103    0 -1.2536939467E+01 -3.4459960939E+01 -1.6773994355E+02  2.6359315701E+02  2.0000000000E+02 0. 9.
-1000006    1    1    2    0  104  3.1167950878E+01  9.5866847336E+00 -2.9000045827E+02  3.5378469651E+02  2.0000000000E+02 0. 9.
      21    1    1    2  104  102 -1.8631011411E+01  2.4873276205E+01  1.8926730926E+02  1.9180174350E+02  0.0000000000E+00 0. 9.
#  0.2023463E+03  0.2023463E+03  0.3107723E+02
# model T2tt_200_0  18.5245 
</event>
<event>
     4     7  1.000000E+00  2.615346E+02  7.957747E-02  1.113840E-01
      21    -1    0    0  101  102  0.0000000000E+00  0.0000000000E+00  1.4907191033E+02  1.4907191033E+02  0.0000000000E+00 0. 9.
      21   -1    0    0  102  103  0.0000000000E+00  0.0000000000E+00 -4.6828991315E+02  4.6828991315E+02  0.0000000000E+00 0. 9.
 1000006    1    1    2  101    0 -1.2308766435E+02 -1.1510774159E+02 -1.1576260400E+02  2.8600934561E+02  2.0000000000E+02 0. 9.
-1000006    1    1    2    0  103  1.2308766435E+02  1.1510774159E+02 -2.0345539882E+02  3.3135247788E+02  2.0000000000E+02 0. 9.
#  0.2615346E+03  0.2615346E+03
# model T2tt_200_0  18.5245 
</event>
<event>
     5     6  1.000000E+00  2.016004E+02  7.957747E-02  1.154686E-01
      21    -1    0    0  101  102  0.0000000000E+00  0.0000000000E+00  3.0305039226E+02  3.0305039226E+02  0.0000000000E+00 0. 9.
      21   -1    0    0  103  104  0.0000000000E+00  0.0000000000E+00 -3.2736983381E+02  3.2736983381E+02  0.0000000000E+00 0. 9.
 1000006    1    1    2  103    0 -9.5399214483E+00 -1.8581993746E+00 -8.2894675859E+01  2.1671638215E+02  2.0000000000E+02 0. 9.
-1000006    1    1    2    0  102  3.3020437284E+00  3.1641295996E+01  1.9067004219E+02  2.7814949235E+02  2.0000000000E+02 0. 9.
      21    1    1    2  101  104  6.2378777199E+00 -2.9783096622E+01 -1.3209480788E+02  1.3555435158E+02  0.0000000000E+00 0. 9.
#  0.2016004E+03  0.2016004E+03  0.3042933E+02
# model T2tt_200_0  18.5245 
</event>
<event>
     4     7  1.000000E+00  2.430749E+02  7.957747E-02  1.125032E-01
      21    -1    0    0  101  102  0.0000000000E+00  0.0000000000E+00  6.2357559076E+02  6.2357559076E+02  0.0000000000E+00 0. 9.
      21   -1    0    0  103  101  0.0000000000E+00  0.0000000000E+00 -1.1094595657E+02  1.1094595657E+02  0.0000000000E+00 0. 9.
 1000006    1    1    2  103    0  9.0603443445E+01 -1.0429016896E+02  1.1600536564E+02  2.6933746149E+02  2.0000000000E+02 0. 9.
-1000006    1    1    2    0  102 -9.0603443445E+01  1.0429016896E+02  3.9662426856E+02  4.6518408584E+02  2.0000000000E+02 0. 9.
#  0.2430749E+03  0.2430749E+03
# model T2tt_200_0  18.5245 
</event>
<event>
     6     4  1.000000E+00  2.429234E+02  7.957747E-02  1.125128E-01
       2    -1    0    0  101    0  0.0000000000E+00  0.0000000000E+00  1.3128635463E+03  1.3128635463E+03  0.0000000000E+00 0. 9.
       4   -1    0    0  102    0  0.0000000000E+00  0.0000000000E+00 -1.1505698205E+02  1.1505698205E+02  0.0000000000E+00 0. 9.
 1000006    1    1    2  101    0  8.3021498086E+01 -7.5674323818E+01  6.0327119297E+02  6.4541095799E+02  2.0000000000E+02 0. 9.
-1000006    1    1    2    0  103 -1.5015731380E+02  1.0515172159E+02  5.1022370843E+02  5.7786878795E+02  2.0000000000E+02 0. 9.
       2    1    1    2  102    0  1.7713381014E+01  5.5203545337E+01  8.9296231243E+01  1.0646601429E+02  0.0000000000E+00 0. 9.
       4    1    1    2  103    0  4.9422434698E+01 -8.4680943109E+01 -4.9845683780E+00  9.8174768140E+01  0.0000000000E+00 0. 9.
#  0.2429234E+03  0.2429234E+03  0.5797585E+02  0.9657628E+02
# model T2tt_200_0  18.5245 
</event>
<event>
     5     6  1.000000E+00  2.295922E+02  7.957747E-02  1.133915E-01
      21    -1    0    0  101  102  0.0000000000E+00  0.0000000000E+00  4.2549836174E+02  4.2549836174E+02  0.0000000000E+00 0. 9.
      -1   -1    0    0    0  101  0.0000000000E+00  0.0000000000E+00 -2.8479084590E+02  2.8479084590E+02  0.0000000000E+00 0. 9.
 1000006    1    1    2  103    0  1.8607473397E+01 -2.1025201977E+02  1.0586406763E+01  2.9097117021E+02  2.0000000000E+02 0. 9.
-1000006    1    1    2    0  102  1.4733819596E+01  7.6739409014E+01  1.7238761490E+02  2.7536069456E+02  2.0000000000E+02 0. 9.
      -1    1    1    2    0  103 -3.3341292993E+01  1.3351261076E+02 -4.2266505828E+01  1.4395734287E+02  0.0000000000E+00 0. 9.
#  0.2295922E+03  0.2295922E+03  0.1376127E+03
# model T2tt_200_0  18.5245 
</event>
<event>
     6     4  1.000000E+00  2.475950E+02  7.957747E-02  1.122194E-01
      21    -1    0    0  101  102  0.0000000000E+00  0.0000000000E+00  2.9845037102E+02  2.9845037102E+02  0.0000000000E+00 0. 9.
       1   -1    0    0  103    0  0.0000000000E+00  0.0000000000E+00 -9.1379326104E+02  9.1379326104E+02  0.0000000000E+00 0. 9.
 1000006    1    1    2  101    0  1.2580240676E+02 -9.2815377235E+01  1.2990097102E+02  2.8515820533E+02  2.0000000000E+02 0. 9.
-1000006    1    1    2    0  104 -9.2394718030E+01  8.3402874317E+01 -7.9386282264E+01  2.4858601163E+02  2.0000000000E+02 0. 9.
      21    1    1    2  103  102 -6.7577658426E+01  2.4421008404E+01 -2.2801066475E+02  2.3906482136E+02  0.0000000000E+00 0. 9.
       1    1    1    2  104    0  3.4169969701E+01 -1.5008505486E+01 -4.3784691402E+02  4.3943459375E+02  0.0000000000E+00 0. 9.
#  0.2475950E+03  0.2475950E+03  0.5356708E+02  0.3732080E+02
# model T2tt_200_0  18.5245 
</event>
<event>
     5     6  1.000000E+00  2.059945E+02  7.957747E-02  1.151189E-01
      21    -1    0    0  101  102  0.0000000000E+00  0.0000000000E+00  1.2354601693E+03  1.2354601693E+03  0.0000000000E+00 0. 9.
      21   -1    0    0  103  104  0.0000000000E+00  0.0000000000E+00 -6.0072821469E+01  6.0072821469E+01  0.0000000000E+00 0. 9.
 1000006    1    1    2  103    0  5.6984301124E+01  3.9783783018E+01  3.6966174645E+02  4.2600442105E+02  2.0000000000E+02 0. 9.
-1000006    1    1    2    0  102 -3.1182101049E+01 -1.1669985292E+01  2.9836875577E+02  3.6073872318E+02  2.0000000000E+02 0. 9.
      21    1    1    2  101  104 -2.5802200075E+01 -2.8113797726E+01  5.0735684563E+02  5.0878984656E+02  0.0000000000E+00 0. 9.
#  0.2059945E+03  0.2059945E+03  0.3815939E+02
# model T2tt_200_0  18.5245 
</event>
<event>
     4     7  1.000000E+00  2.111102E+02  7.957747E-02  1.147236E-01
      21    -1    0    0  101  102  0.0000000000E+00  0.0000000000E+00  3.2962101275E+02  3.2962101275E+02  0.0000000000E+00 0. 9.
      21   -1    0    0  102  103  0.0000000000E+00  0.0000000000E+00 -1.5583475198E+02  1.5583475198E+02  0.0000000000E+00 0. 9.
 1000006    1    1    2  101    0 -2.9330225388E+00  6.7519804754E+01  1.7520088065E+02  2.7434080126E+02  2.0000000000E+02 0. 9.
-1000006    1    1    2    0  103  2.9330225388E+00 -6.7519804754E+01 -1.4146198740E+00  2.1111496348E+02  2.0000000000E+02 0. 9.
#  0.2111102E+03  0.2111102E+03
# model T2tt_200_0  18.5245 
</event>
<event>
     5     6  1.000000E+00  2.386871E+02  7.957747E-02  1.127852E-01
      21    -1    0    0  101  102  0.0000000000E+00  0.0000000000E+00  7.1027426588E+01  7.1027426588E+01  0.0000000000E+00 0. 9.
      21   -1    0    0  103  104  0.0000000000E+00  0.0000000000E+00 -1.3626942940E+03  1.3626942940E+03  0.0000000000E+00 0. 9.
 1000006    1    1    2  101    0  1.5403181796E+02 -1.1238064885E+01 -4.3727106518E+02  5.0503275091E+02  2.0000000000E+02 0. 9.
-1000006    1    1    2    0  104 -8.4853220655E+01  1.0265265590E+02 -6.6753179006E+02  7.0946199867E+02  2.0000000000E+02 0. 9.
      21    1    1    2  103  102 -6.9178597302E+01 -9.1414591013E+01 -1.8686401221E+02  2.1922697104E+02  0.0000000000E+00 0. 9.
#  0.2386871E+03  0.2386871E+03  0.1146399E+03
# model T2tt_200_0  18.5245 
</event>
<event>
     6     4  1.000000E+00  3.804079E+02  7.957747E-02  1.059869E-01
       2    -1    0    0  101    0  0.0000000000E+00  0.0000000000E+00  2.4018532031E+03  2.4018532031E+03  0.0000000000E+00 0. 9.
      21   -1    0    0  102  103  0.0000000000E+00  0.0000000000E+00 -3.1563056693E+02  3.1563056693E+02  0.0000000000E+00 0. 9.
 1000006    1    1    2  102    0 -1.8978124246E+02 -3.2067869075E+02 -7.0049668507E+01  4.2867085129E+02  2.0000000000E+02 0. 9.
-1000006    1    1    2    0  104  1.7466639640E+02  6.9403026958E+00  3.7185887152E+02  4.5698527127E+02  2.0000000000E+02 0. 9.
      21    1    1    2  101  103 -6.1573886159E+01 -2.4277597102E+01  2.3681324439E+02  2.4588871039E+02  0.0000000000E+00 0. 9.
       2    1    1    2  104    0  7.6688732217E+01  3.3801598515E+02  1.5476001888E+03  1.5859389371E+03  0.0000000000E+00 0. 9.
#  0.3804079E+03  0.2579286E+03  0.6618720E+02  0.3235895E+03
# model T2tt_200_0  18.5245 
</event>
<event>
     4     7  1.000000E+00  2.073289E+02  7.957747E-02  1.150146E-01
      21    -1    0    0  101  102  0.0000000000E+00  0.0000000000E+00  9.8441038715E+01  9.8441038715E+01  0.0000000000E+00 0. 9.
      21   -1    0    0  103  101  0.0000000000E+00  0.0000000000E+00 -4.5513486775E+02  4.5513486775E+02  0.0000000000E+00 0. 9.
 1000006    1    1    2  103    0  3.5971753800E+01 -4.1125365470E+01 -1.2258111364E+02  2.4085554213E+02  2.0000000000E+02 0. 9.
-1000006    1    1    2    0  102 -3.5971753800E+01  4.1125365470E+01 -2.3411271540E+02  3.1272036433E+02  2.0000000000E+02 0. 9.
#  0.2073289E+03  0.2073289E+03
# model T2tt_200_0  18.5245 
</event>
<event>
     6     4  1.000000E+00  2.158529E+02  7.957747E-02  1.143679E-01
      21    -1    0    0  101  102  0.0000000000E+00  0.0000000000E+00  3.2665424210E+02  3.2665424210E+02  0.0000000000E+00 0. 9.
       1   -1    0    0  103    0  0.0000000000E+00  0.0000000000E+00 -9.6823229119E+02  9.6823229119E+02  0.0000000000E+00 0. 9.
 1000006    1    1    2  101    0 -3.2283238938E+01 -1.0782272569E+02 -1.0689716766E+02  2.5316980891E+02  2.0000000000E+02 0. 9.
-1000006    1    1    2    0  104 -5.1024443744E+01  5.6849346395E+01 -7.9245401550E+01  2.2828748479E+02  2.0000000000E+02 0. 9.
      21    1    1    2  103  102  6.3109472763E+01  5.6252272674E+00  1.7237932934E+02  1.8365479008E+02  0.0000000000E+00 0. 9.
       1    1    1    2  104    0  2.0198209918E+01  4.5348152026E+01 -6.2781480923E+02  6.2977444951E+02  0.0000000000E+00 0. 9.
#  0.2158529E+03  0.2158529E+03  0.6376477E+02  0.4964295E+02
# model T2tt_200_0  18.5245 
</event>
<event>
     4     7  1.000000E+00  2.179076E+02  7.957747E-02  1.142169E-01
      21    -1    0    0  101  102  0.0000000000E+00  0.0000000000E+00  5.7289750526E+01  5.7289750526E+01  0.0000000000E+00 0. 9.
      21   -1    0    0  103  101  0.0000000000E+00  0.0000000000E+00 -8.4417665977E+02  8.4417665977E+02  0.0000000000E+00 0. 9.
 1000006    1    1    2  103    0  8.5622284688E+01  1.2351019844E+01 -4.5420736856E+02  5.0377381530E+02  2.0000000000E+02 0. 9.
-1000006    1    1    2    0  102 -8.5622284688E+01 -1.2351019844E+01 -3.3267954069E+02  3.9769259500E+02  2.0000000000E+02 0. 9.
#  0.2179076E+03  0.2179076E+03
# model T2tt_200_0  18.5245 
</event>
<event>
     4     7  1.000000E+00  2.698954E+02  7.957747E-02  1.109097E-01
      21    -1    0    0  101  102  0.0000000000E+00  0.0000000000E+00  1.8675935551E+02  1.8675935551E+02  0.0000000000E+00 0. 9.
      21   -1    0    0  102  103  0.0000000000E+00  0.0000000000E+00 -3.9650466108E+02  3.9650466108E+02  0.0000000000E+00 0. 9.
 1000006    1    1    2  101    0 -1.1118232370E+02 -1.4311531398E+02 -1.4211224624E+02  3.0502359373E+02  2.0000000000E+02 0. 9.
-1000006    1    1    2    0  103  1.1118232370E+02  1.4311531398E+02 -6.7633059324E+01  2.7824042286E+02  2.0000000000E+02 0. 9.
#  0.2698954E+03  0.2698954E+03
# model T2tt_200_0  18.5245 
</event>
<event>
     5     6  1.000000E+00  3.293420E+02  7.957747E-02  1.080002E-01
      21    -1    0    0  101  102  0.0000000000E+00  0.0000000000E+00  2.5292124373E+02  2.5292124373E+02  0.0000000000E+00 0. 9.
       1   -1    0    0  103    0  0.0000000000E+00  0.0000000000E+00 -8.4264297544E+02  8.4264297544E+02  0.0000000000E+00 0. 9.
 1000006    1    1    2  103    0  2.1002038540E+02 -1.3230838114E+02 -4.0432546591E+02  5.1487197669E+02  2.0000000000E+02 0. 9.
-1000006    1    1    2    0  102 -2.8887685997E+02  5.7690093200E+01 -2.6685939005E+02  4.4496283119E+02  2.0000000000E+02 0. 9.
       1    1    1    2  101    0  7.8856474571E+01  7.4618287939E+01  8.1463124252E+01  1.3572941129E+02  0.0000000000E+00 0. 9.
#  0.5822435E+03  0.5822435E+03  0.1085644E+03
# model T2tt_200_0  18.5245 
</event>
<event>
     4     7  1.000000E+00  2.280604E+02  7.957747E-02  1.134966E-01
      21    -1    0    0  101  102  0.0000000000E+00  0.0000000000E+00  8.7930515530E+02  8.7930515530E+02  0.0000000000E+00 0. 9.
      21   -1    0    0  103  101  0.0000000000E+00  0.0000000000E+00 -5.9931209312E+01  5.9931209312E+01  0.0000000000E+00 0. 9.
 1000006    1    1    2  103    0 -7.2948027948E+01  8.1793225758E+01  3.5609526689E+02  4.2286568277E+02  2.0000000000E+02 0. 9.
-1000006    1    1    2    0  102  7.2948027948E+01 -8.1793225758E+01  4.6327867910E+02  5.1637068184E+02  2.0000000000E+02 0. 9.
#  0.2280604E+03  0.2280604E+03
# model T2tt_200_0  18.5245 
</event>
<event>
     6     4  1.000000E+00  2.820540E+02  7.957747E-02  1.102522E-01
      21    -1    0    0  101  102  0.0000000000E+00  0.0000000000E+00  8.4437568912E+02  8.4437568912E+02  0.0000000000E+00 0. 9.
      21   -1    0    0  103  104  0.0000000000E+00  0.0000000000E+00 -1.4053141564E+02  1.4053141564E+02  0.0000000000E+00 0. 9.
 1000006    1    1    2  105    0 -6.2642584760E+01  1.9847822361E+02  2.1347120013E+02  3.5900926444E+02  2.0000000000E+02 0. 9.
-1000006    1    1    2    0  104  1.3308903474E+02 -1.4832338358E+02  3.0081443103E+02  4.1255525594E+02  2.0000000000E+02 0. 9.
      21    1    1    2  101  105 -4.4507481760E+01 -2.8335022516E+01  1.5963397486E+02  1.6812731891E+02  0.0000000000E+00 0. 9.
      21    1    1    2  103  102 -2.5938968224E+01 -2.1819817508E+01  2.9924667456E+01  4.5215265464E+01  0.0000000000E+00 0. 9.
#  0.2820540E+03  0.2820540E+03  0.5383555E+02  0.3389594E+02
# model T2tt_200_0  18.5245 
</event>
<event>
     5     6  1.000000E+00  2.236988E+02  7.957747E-02  1.138009E-01
      21    -1    0    0  101  102  0.0000000000E+00  0.0000000000E+00  6.8404882950E+01  6.8404882950E+01  0.0000000000E+00 0. 9.
      21   -1    0    0  103  104  0.0000000000E+00  0.0000000000E+00 -8.9537429418E+02  8.9537429418E+02  0.0000000000E+00 0. 9.
 1000006    1    1    2  101    0  2.1569258858E+01  8.0957056331E+01 -3.7241641590E+02  4.3094461910E+02  2.0000000000E+02 0. 9.
-1000006    1    1    2    0  104 -3.7861660166E+01 -1.1008276279E+02 -4.3846676672E+02  4.9578707677E+02  2.0000000000E+02 0. 9.
      21    1    1    2  103  102  1.6292401308E+01  2.9125706455E+01 -1.6086228604E+01  3.7047481258E+01  0.0000000000E+00 0. 9.
#  0.2236988E+03  0.2236988E+03  0.3337288E+02
# model T2tt_200_0  18.5245 
</event>
<event>
     6     4  1.000000E+00  3.304875E+02  7.957747E-02  1.079508E-01
      21    -1    0    0  101  102  0.0000000000E+00  0.0000000000E+00  8.1565995815E+01  8.1565995815E+01  0.0000000000E+00 0. 9.
      21   -1    0    0  103  104  0.0000000000E+00  0.0000000000E+00 -2.1499633730E+03  2.1499633730E+03  0.0000000000E+00 0. 9.
 1000006    1    1    2  103    0  1.3703664141E+02  1.9140114002E+02 -7.2627204026E+02  7.8923033010E+02  2.0000000000E+02 0. 9.
-1000006    1    1    2    0  102 -4.3633299541E+01 -3.0479724558E+02 -9.8499087779E+02  1.0511956312E+03  2.0000000000E+02 0. 9.
      21    1    1    2  105  104 -3.3199908989E+01  1.4325326871E+01 -1.4411313625E+02  1.4858009620E+02  0.0000000000E+00 0. 9.
      21    1    1    2  101  105 -6.0203432883E+01  9.9070778693E+01 -2.1302132288E+02  2.4252331130E+02  0.0000000000E+00 0. 9.
#  0.3304875E+03  0.3304875E+03  0.3458090E+02  0.1594266E+03
# model T2tt_200_0  18.5245 
</event>
<event>
     4     7  1.000000E+00  2.316606E+02  7.957747E-02  1.132509E-01
      21    -1    0    0  101  102  0.0000000000E+00  0.0000000000E+00  1.3910570772E+02  1.3910570772E+02  0.0000000000E+00 0. 9.
      21   -1    0    0  103  101  0.0000000000E+00  0.0000000000E+00 -3.8762483866E+02  3.8762483866E+02  0.0000000000E+00 0. 9.
 1000006    1    1    2  103    0 -3.6936279902E+01 -1.1091585252E+02 -1.4234290346E+02  2.7189725500E+02  2.0000000000E+02 0. 9.
-1000006    1    1    2    0  102  3.6936279902E+01  1.1091585252E+02 -1.0617622748E+02  2.5483329138E+02  2.0000000000E+02 0. 9.
#  0.2316606E+03  0.2316606E+03
# model T2tt_200_0  18.5245 
</event>
<event>
     5     6  1.000000E+00  2.318950E+02  7.957747E-02  1.132351E-01
      21    -1    0    0  101  102  0.0000000000E+00  0.0000000000E+00  1.4999958679E+02  1.4999958679E+02  0.0000000000E+00 0. 9.
      21   -1    0    0  102  103  0.0000000000E+00  0.0000000000E+00 -5.4222890325E+02  5.4222890325E+02  0.0000000000E+00 0. 9.
 1000006    1    1    2  104    0  8.4905339773E+01  1.0307024099E+02 -2.4681938600E+02  3.4460441176E+02  2.0000000000E+02 0. 9.
-1000006    1    1    2    0  103 -5.4895511495E+01 -8.4158607166E+01 -1.8792597139E+02  2.9225392908E+02  2.0000000000E+02 0. 9.
      21    1    1    2  101  104 -3.0009828278E+01 -1.8911633820E+01  4.2516040919E+01  5.5370149200E+01  0.0000000000E+00 0. 9.
#  0.2318950E+03  0.2318950E+03  0.3547167E+02
# model T2tt_200_0  18.5245 
</event>
<event>
     4     7  1.000000E+00  2.058131E+02  7.957747E-02  1.151332E-01
      21    -1    0    0  101  102  0.0000000000E+00  0.0000000000E+00  3.3642137331E+02  3.3642137331E+02  0.0000000000E+00 0. 9.
      21   -1    0    0  103  101  0.0000000000E+00  0.0000000000E+00 -1.4282849208E+02  1.4282849208E+02  0.0000000000E+00 0. 9.
 1000006    1    1    2  103    0 -4.7937874625E+01 -7.8100286605E+00  1.4326256683E+01  2.0631111943E+02  2.0000000000E+02 0. 9.
-1000006    1    1    2    0  102  4.7937874625E+01  7.8100286605E+00  1.7926662454E+02  2.7293874596E+02  2.0000000000E+02 0. 9.
#  0.2058131E+03  0.2058131E+03
# model T2tt_200_0  18.5245 
</event>
<event>
     5     6  1.000000E+00  2.381907E+02  7.957747E-02  1.128176E-01
       1   -1    0    0  101    0  0.0000000000E+00  0.0000000000E+00  5.8778659915E+02  5.8778659915E+02  0.0000000000E+00 0. 9.
      21   -1    0    0  102  101  0.0000000000E+00  0.0000000000E+00 -8.1434262290E+02  8.1434262290E+02  0.0000000000E+00 0. 9.
 1000006    1    1    2  102    0 -1.0962396834E+02 -9.1665486440E+01 -2.5939846328E+02  3.5736191542E+02  2.0000000000E+02 0. 9.
-1000006    1    1    2    0  103  7.4141461101E+01  9.8239573632E+01 -4.7804262233E+02  5.3260934919E+02  2.0000000000E+02 0. 9.
       1    1    1    2  103    0  3.5482507235E+01 -6.5740871921E+00  5.1088506186E+02  5.1215795745E+02  0.0000000000E+00 0. 9.
#  0.2381907E+03  0.2381907E+03  0.3608638E+02
# model T2tt_200_0  18.5245 
#mrenna fix
</event>
<event>
     5     6  1.000000E+00  2.461921E+02  7.957747E-02  1.123067E-01
      21    -1    0    0  101  102  0.0000000000E+00  0.0000000000E+00  1.6922708923E+02  1.6922708923E+02  0.0000000000E+00 0. 9.
       2   -1    0    0  102    0  0.0000000000E+00  0.0000000000E+00 -7.1340970257E+02  7.1340970257E+02  0.0000000000E+00 0. 9.
 1000006    1    1    2  101    0  8.6875072050E+01 -1.2953779720E+02 -2.1551087887E+02  3.3282466549E+02  2.0000000000E+02 0. 9.
-1000006    1    1    2    0  103  3.7114473919E+01  1.5158567688E+02 -7.1669960122E+01  2.6361389340E+02  2.0000000000E+02 0. 9.
       2    1    1    2  103    0 -1.2398954597E+02 -2.2047879678E+01 -2.5700177434E+02  2.8619823291E+02  0.0000000000E+00 0. 9.
#  0.2461921E+03  0.2461921E+03  0.1259346E+03
# model T2tt_200_0  18.5245 
</event>
<event>
     4     7  1.000000E+00  2.550780E+02  7.957747E-02  1.117637E-01
      21    -1    0    0  101  102  0.0000000000E+00  0.0000000000E+00  1.3666902465E+02  1.3666902465E+02  0.0000000000E+00 0. 9.
      21   -1    0    0  102  103  0.0000000000E+00  0.0000000000E+00 -5.7675852605E+02  5.7675852605E+02  0.0000000000E+00 0. 9.
 1000006    1    1    2  101    0  1.5686576476E+02 -2.1398578157E+01 -7.1005345459E+01  2.6477637052E+02  2.0000000000E+02 0. 9.
-1000006    1    1    2    0  103 -1.5686576476E+02  2.1398578157E+01 -3.6908415594E+02  4.4865118017E+02  2.0000000000E+02 0. 9.
#  0.2550780E+03  0.2550780E+03
# model T2tt_200_0  18.5245 
</event>
<event>
     5     6  1.000000E+00  3.092309E+02  7.957747E-02  1.089045E-01
      21    -1    0    0  101  102  0.0000000000E+00  0.0000000000E+00  5.3648681616E+02  5.3648681616E+02  0.0000000000E+00 0. 9.
      21   -1    0    0  103  104  0.0000000000E+00  0.0000000000E+00 -3.4791017316E+02  3.4791017316E+02  0.0000000000E+00 0. 9.
 1000006    1    1    2  101    0  3.7985510159E+01  4.7282961115E+01  1.5312967992E+02  2.5908932102E+02  2.0000000000E+02 0. 9.
-1000006    1    1    2    0  104  2.1146866153E+02 -9.0498337366E+01 -1.2072195771E+02  3.2784559620E+02  2.0000000000E+02 0. 9.
      21    1    1    2  103  102 -2.4945417169E+02  4.3215376251E+01  1.5616892079E+02  2.9746207210E+02  0.0000000000E+00 0. 9.
#  0.2089942E+03  0.3092309E+03  0.2358468E+03
# model T2tt_200_0  18.5245 
</event>
<event>
     5     6  1.000000E+00  2.208363E+02  7.957747E-02  1.140048E-01
      21    -1    0    0  101  102  0.0000000000E+00  0.0000000000E+00  7.5291456408E+02  7.5291456408E+02  0.0000000000E+00 0. 9.
       2   -1    0    0  102    0  0.0000000000E+00  0.0000000000E+00 -1.4220616811E+02  1.4220616811E+02  0.0000000000E+00 0. 9.
 1000006    1    1    2  101    0 -4.3828653105E+01  6.5391989198E+01  3.0307192115E+02  3.7155033640E+02  2.0000000000E+02 0. 9.
-1000006    1    1    2    0  103  6.9644599721E+01 -8.1938566994E+01  3.8129138149E+02  4.4378758052E+02  2.0000000000E+02 0. 9.
       2    1    1    2  103    0 -2.5815946616E+01  1.6546577796E+01 -7.3654906664E+01  7.9782815269E+01  0.0000000000E+00 0. 9.
#  0.2208363E+03  0.2208363E+03  0.3066353E+02
# model T2tt_200_0  18.5245 
</event>
<event>
     5     6  1.000000E+00  2.161687E+02  7.957747E-02  1.143446E-01
      21    -1    0    0  101  102  0.0000000000E+00  0.0000000000E+00  2.7727686286E+02  2.7727686286E+02  0.0000000000E+00 0. 9.
      21   -1    0    0  102  103  0.0000000000E+00  0.0000000000E+00 -3.3857427309E+02  3.3857427309E+02  0.0000000000E+00 0. 9.
 1000006    1    1    2  101    0 -1.0051850470E+02  2.3655678384E+01  1.3929776105E+02  2.6470252576E+02  2.0000000000E+02 0. 9.
-1000006    1    1    2    0  104  2.1992499893E+01  1.1849924424E+01 -1.3110662690E+02  2.4044342033E+02  2.0000000000E+02 0. 9.
      21    1    1    2  104  103  7.8526004810E+01 -3.5505602808E+01 -6.9488544391E+01  1.1070518987E+02  0.0000000000E+00 0. 9.
#  0.2161687E+03  0.2161687E+03  0.8617994E+02
# model T2tt_200_0  18.5245 
</event>
<event>
     6     4  1.000000E+00  3.388891E+02  7.957747E-02  1.075950E-01
      21    -1    0    0  101  102  0.0000000000E+00  0.0000000000E+00  3.4515331759E+02  3.4515331759E+02  0.0000000000E+00 0. 9.
       2   -1    0    0  103    0  0.0000000000E+00  0.0000000000E+00 -1.6078452782E+03  1.6078452782E+03  0.0000000000E+00 0. 9.
 1000006    1    1    2  101    0  1.7544562834E+02 -8.6587216105E+01 -2.5043604986E+02  3.7549531231E+02  2.0000000000E+02 0. 9.
-1000006    1    1    2    0  104 -2.0185447052E+02  2.3556278147E+02  1.4234092844E+02  3.9559574213E+02  2.0000000000E+02 0. 9.
      21    1    1    2  103  102  7.1971513583E+01  1.6269750308E+01 -4.9178579123E+02  4.9729052675E+02  0.0000000000E+00 0. 9.
       2    1    1    2  104    0 -4.5562671408E+01 -1.6524531568E+02 -6.6281104797E+02  6.8461701461E+02  0.0000000000E+00 0. 9.
#  0.3388891E+03  0.3388891E+03  0.7378756E+02  0.1554127E+03
# model T2tt_200_0  18.5245 
</event>
<event>
     5     6  1.000000E+00  2.218161E+02  7.957747E-02  1.139346E-01
      21    -1    0    0  101  102  0.0000000000E+00  0.0000000000E+00  1.7933571501E+02  1.7933571501E+02  0.0000000000E+00 0. 9.
      21   -1    0    0  103  104  0.0000000000E+00  0.0000000000E+00 -3.5004286139E+02  3.5004286139E+02  0.0000000000E+00 0. 9.
 1000006    1    1    2  103    0  4.5470680675E+01  5.6598118357E+01 -1.0687046167E+02  2.3810129227E+02  2.0000000000E+02 0. 9.
-1000006    1    1    2    0  102 -7.8381959665E+01 -8.1330126952E+01 -1.9105540404E+01  2.3048501649E+02  2.0000000000E+02 0. 9.
      21    1    1    2  101  104  3.2911278990E+01  2.4732008596E+01 -4.4731144303E+01  6.0792267638E+01  0.0000000000E+00 0. 9.
#  0.2218161E+03  0.2218161E+03  0.4116825E+02
# model T2tt_200_0  18.5245 
</event>
<event>
     4     7  1.000000E+00  2.065406E+02  7.957747E-02  1.150761E-01
      21    -1    0    0  101  102  0.0000000000E+00  0.0000000000E+00  1.0306613118E+02  1.0306613118E+02  0.0000000000E+00 0. 9.
      21   -1    0    0  103  101  0.0000000000E+00  0.0000000000E+00 -4.5282609477E+02  4.5282609477E+02  0.0000000000E+00 0. 9.
 1000006    1    1    2  103    0  3.9072463907E+01  3.3650655585E+01 -2.5637252630E+02  3.2922013349E+02  2.0000000000E+02 0. 9.
-1000006    1    1    2    0  102 -3.9072463907E+01 -3.3650655585E+01 -9.3387437290E+01  2.2667209246E+02  2.0000000000E+02 0. 9.
#  0.2065406E+03  0.2065406E+03
# model T2tt_200_0  18.5245 
</event>
<event>
     5     6  1.000000E+00  2.826854E+02  7.957747E-02  1.102190E-01
       1   -1    0    0  101    0  0.0000000000E+00  0.0000000000E+00  8.4066931589E+02  8.4066931589E+02  0.0000000000E+00 0. 9.
      21   -1    0    0  102  103  0.0000000000E+00  0.0000000000E+00 -3.9041881971E+02  3.9041881971E+02  0.0000000000E+00 0. 9.
 1000006    1    1    2  101    0  1.5652732322E+02  1.1382753289E+02 -2.2062469306E+02  3.5515174974E+02  2.0000000000E+02 0. 9.
-1000006    1    1    2    0  103 -2.0127741053E+02 -9.6121778574E+01  1.1962049394E+02  3.2258495761E+02  2.0000000000E+02 0. 9.
       1    1    1    2  102    0  4.4750087307E+01 -1.7705754316E+01  5.5125469530E+02  5.5335142824E+02  0.0000000000E+00 0. 9.
#  0.2826854E+03  0.2826854E+03  0.4812550E+02
# model T2tt_200_0  18.5245 
#mrenna fix
</event>
<event>
     4     7  1.000000E+00  2.191079E+02  7.957747E-02  1.141295E-01
      21    -1    0    0  101  102  0.0000000000E+00  0.0000000000E+00  8.2540422816E+01  8.2540422816E+01  0.0000000000E+00 0. 9.
      21   -1    0    0  103  101  0.0000000000E+00  0.0000000000E+00 -5.9746490877E+02  5.9746490877E+02  0.0000000000E+00 0. 9.
 1000006    1    1    2  103    0 -5.1610886984E+01  7.3106559722E+01 -2.0211581397E+02  2.9809235983E+02  2.0000000000E+02 0. 9.
-1000006    1    1    2    0  102  5.1610886984E+01 -7.3106559722E+01 -3.1280867198E+02  3.8191297175E+02  2.0000000000E+02 0. 9.
#  0.2191079E+03  0.2191079E+03
# model T2tt_200_0  18.5245 
</event>
<event>
     4     7  1.000000E+00  2.000962E+02  7.957747E-02  1.155906E-01
      21    -1    0    0  101  102  0.0000000000E+00  0.0000000000E+00  1.6511290222E+02  1.6511290222E+02  0.0000000000E+00 0. 9.
      21   -1    0    0  103  101  0.0000000000E+00  0.0000000000E+00 -2.6864765025E+02  2.6864765025E+02  0.0000000000E+00 0. 9.
 1000006    1    1    2  103    0 -5.7283504219E+00 -2.3845955494E+00 -1.1944018102E+02  2.3303316746E+02  2.0000000000E+02 0. 9.
-1000006    1    1    2    0  102  5.7283504219E+00  2.3845955494E+00  1.5905432992E+01  2.0072738501E+02  2.0000000000E+02 0. 9.
#  0.2000962E+03  0.2000962E+03
# model T2tt_200_0  18.5245 
</event>
<event>
     5     6  1.000000E+00  2.084238E+02  7.957747E-02  1.149296E-01
      21    -1    0    0  101  102  0.0000000000E+00  0.0000000000E+00  4.1599901270E+02  4.1599901270E+02  0.0000000000E+00 0. 9.
      21   -1    0    0  102  103  0.0000000000E+00  0.0000000000E+00 -1.5063487991E+02  1.5063487991E+02  0.0000000000E+00 0. 9.
 1000006    1    1    2  104    0  2.9611241534E+01  5.9335947741E+01  4.4025886783E+01  2.1525765730E+02  2.0000000000E+02 0. 9.
-1000006    1    1    2    0  103 -4.1501380210E+01 -3.1443298739E+01  1.0628621255E+02  2.3239579293E+02  2.0000000000E+02 0. 9.
      21    1    1    2  101  104  1.1890138676E+01 -2.7892649002E+01  1.1505203345E+02  1.1898044238E+02  0.0000000000E+00 0. 9.
#  0.2084238E+03  0.2084238E+03  0.3032120E+02
# model T2tt_200_0  18.5245 
</event>
<event>
     4     7  1.000000E+00  3.366431E+02  7.957747E-02  1.076891E-01
       1   -1    0    0  101    0  0.0000000000E+00  0.0000000000E+00  1.6103108919E+02  1.6103108919E+02  0.0000000000E+00 0. 9.
      -1   -1    0    0    0  102  0.0000000000E+00  0.0000000000E+00 -8.1685297437E+02  8.1685297437E+02  0.0000000000E+00 0. 9.
 1000006    1    1    2  101    0 -1.6737166120E+02  2.1287399403E+02 -1.4598824342E+02  3.6693484098E+02  2.0000000000E+02 0. 9.
-1000006    1    1    2    0  102  1.6737166120E+02 -2.1287399403E+02 -5.0983364176E+02  6.1094922258E+02  2.0000000000E+02 0. 9.
#  0.6373028E+03  0.6373028E+03
# model T2tt_200_0  18.5245 
</event>
<event>
     4     7  1.000000E+00  3.472266E+02  7.957747E-02  1.072528E-01
       2    -1    0    0  101    0  0.0000000000E+00  0.0000000000E+00  8.3186769378E+02  8.3186769378E+02  0.0000000000E+00 0. 9.
      -2   -1    0    0    0  102  0.0000000000E+00  0.0000000000E+00 -2.1771924638E+02  2.1771924638E+02  0.0000000000E+00 0. 9.
 1000006    1    1    2  101    0 -1.0648798234E+00 -2.8384009698E+02  6.1050538210E+02  7.0234119642E+02  2.0000000000E+02 0. 9.
-1000006    1    1    2    0  102  1.0648798234E+00  2.8384009698E+02  3.6430653039E+00  3.4724574374E+02  2.0000000000E+02 0. 9.
#  0.7774667E+03  0.7774667E+03
# model T2tt_200_0  18.5245 
</event>
<event>
     4     7  1.000000E+00  2.035130E+02  7.957747E-02  1.153152E-01
      21    -1    0    0  101  102  0.0000000000E+00  0.0000000000E+00  6.1273936966E+02  6.1273936966E+02  0.0000000000E+00 0. 9.
      21   -1    0    0  102  103  0.0000000000E+00  0.0000000000E+00 -8.1772201948E+01  8.1772201948E+01  0.0000000000E+00 0. 9.
 1000006    1    1    2  101    0 -2.4194799428E+00 -3.7572201888E+01  1.2088743002E+02  2.3670930479E+02  2.0000000000E+02 0. 9.
-1000006    1    1    2    0  103  2.4194799428E+00  3.7572201888E+01  4.1007973769E+02  4.5780226681E+02  2.0000000000E+02 0. 9.
#  0.2035130E+03  0.2035130E+03
# model T2tt_200_0  18.5245 
</event>
<event>
     6     4  1.000000E+00  2.056588E+02  7.957747E-02  1.151453E-01
       4   -1    0    0  101    0  0.0000000000E+00  0.0000000000E+00  1.1496170019E+02  1.1496170019E+02  0.0000000000E+00 0. 9.
       2   -1    0    0  102    0  0.0000000000E+00  0.0000000000E+00 -3.0606100663E+03  3.0606100663E+03  0.0000000000E+00 0. 9.
 1000006    1    1    2  102    0 -7.0151714625E+01  5.1205901502E+00 -2.1628126467E+03  2.1731787842E+03  2.0000000000E+02 0. 9.
-1000006    1    1    2    0  103  3.5504516182E+01  2.0093813960E+01 -5.3401663198E+02  5.7169755576E+02  2.0000000000E+02 0. 9.
       2    1    1    2  101    0  2.7865678175E+01  2.2136997014E+01 -3.3245076972E+02  3.3435020105E+02  0.0000000000E+00 0. 9.
       4    1    1    2  103    0  6.7815202681E+00 -4.7351401125E+01  8.3631682230E+01  9.6345225508E+01  0.0000000000E+00 0. 9.
#  0.2056588E+03  0.2056588E+03  0.3558852E+02  0.4779273E+02
# model T2tt_200_0  18.5245 
</event>
<event>
     4     7  1.000000E+00  2.052520E+02  7.957747E-02  1.151773E-01
      21    -1    0    0  101  102  0.0000000000E+00  0.0000000000E+00  1.5428045894E+02  1.5428045894E+02  0.0000000000E+00 0. 9.
      21   -1    0    0  102  103  0.0000000000E+00  0.0000000000E+00 -6.6404188787E+02  6.6404188787E+02  0.0000000000E+00 0. 9.
 1000006    1    1    2  101    0 -1.2722513330E+01  4.4345533419E+01  5.9078300405E+01  2.1358519204E+02  2.0000000000E+02 0. 9.
-1000006    1    1    2    0  103  1.2722513330E+01 -4.4345533419E+01 -5.6883972934E+02  6.0473715477E+02  2.0000000000E+02 0. 9.
#  0.2052520E+03  0.2052520E+03
# model T2tt_200_0  18.5245 
</event>
<event>
     4     7  1.000000E+00  2.268379E+02  7.957747E-02  1.135811E-01
      21    -1    0    0  101  102  0.0000000000E+00  0.0000000000E+00  2.0248819687E+02  2.0248819687E+02  0.0000000000E+00 0. 9.
      21   -1    0    0  102  103  0.0000000000E+00  0.0000000000E+00 -2.5707343812E+02  2.5707343812E+02  0.0000000000E+00 0. 9.
 1000006    1    1    2  101    0  5.6158025330E+01 -9.1113830063E+01 -2.6460588438E+00  2.2685337878E+02  2.0000000000E+02 0. 9.
-1000006    1    1    2    0  103 -5.6158025330E+01  9.1113830063E+01 -5.1939182399E+01  2.3270825620E+02  2.0000000000E+02 0. 9.
#  0.2268379E+03  0.2268379E+03
# model T2tt_200_0  18.5245 
</event>
<event>
     5     6  1.000000E+00  2.064036E+02  7.957747E-02  1.150868E-01
      21    -1    0    0  101  102  0.0000000000E+00  0.0000000000E+00  8.0948382121E+01  8.0948382121E+01  0.0000000000E+00 0. 9.
       2   -1    0    0  102    0  0.0000000000E+00  0.0000000000E+00 -2.2497469009E+03  2.2497469009E+03  0.0000000000E+00 0. 9.
 1000006    1    1    2  101    0 -4.7509118778E+01 -5.4211706365E+01 -2.4581065113E+02  3.2499061784E+02  2.0000000000E+02 0. 9.
-1000006    1    1    2    0  103  3.3383150239E+01  1.1829852443E+01 -2.1007251338E+02  2.9220684627E+02  2.0000000000E+02 0. 9.
       2    1    1    2  103    0  1.4125968539E+01  4.2381853921E+01 -1.7129153543E+03  1.7134978189E+03  0.0000000000E+00 0. 9.
#  0.2064036E+03  0.2064036E+03  0.4467398E+02
# model T2tt_200_0  18.5245 
</event>
<event>
     6     4  1.000000E+00  2.910193E+02  7.957747E-02  1.097900E-01
      21    -1    0    0  101  102  0.0000000000E+00  0.0000000000E+00  2.5400613204E+02  2.5400613204E+02  0.0000000000E+00 0. 9.
      21   -1    0    0  103  104  0.0000000000E+00  0.0000000000E+00 -5.2784012344E+02  5.2784012344E+02  0.0000000000E+00 0. 9.
 1000006    1    1    2  101    0 -2.2639878999E+02  8.7015964962E+00 -8.2390404816E+01  3.1324161392E+02  2.0000000000E+02 0. 9.
-1000006    1    1    2    0  105  1.9982245400E+02  1.0386845997E+01 -2.1445173990E+01  2.8371957138E+02  2.0000000000E+02 0. 9.
      21    1    1    2  103  102  2.2706758543E+00 -3.8965217481E+01 -7.0927838984E+01  8.0958029158E+01  0.0000000000E+00 0. 9.
      21    1    1    2  105  104  2.4305660127E+01  1.9876774988E+01 -9.9070573613E+01  1.0392704102E+02  0.0000000000E+00 0. 9.
#  0.2910193E+03  0.2910193E+03  0.3603424E+02  0.3139827E+02
# model T2tt_200_0  18.5245 
</event>
<event>
     4     7  1.000000E+00  2.222852E+02  7.957747E-02  1.139012E-01
      21    -1    0    0  101  102  0.0000000000E+00  0.0000000000E+00  6.4261826399E+01  6.4261826399E+01  0.0000000000E+00 0. 9.
      21   -1    0    0  102  103  0.0000000000E+00  0.0000000000E+00 -1.0003692710E+03  1.0003692710E+03  0.0000000000E+00 0. 9.
 1000006    1    1    2  101    0 -8.7695493241E+01  4.1475307673E+01 -2.1199543894E+02  3.0716895483E+02  2.0000000000E+02 0. 9.
-1000006    1    1    2    0  103  8.7695493241E+01 -4.1475307673E+01 -7.2411200571E+02  7.5746214262E+02  2.0000000000E+02 0. 9.
#  0.2222852E+03  0.2222852E+03
# model T2tt_200_0  18.5245 
</event>
<event>
     5     6  1.000000E+00  2.526599E+02  7.957747E-02  1.119091E-01
      21    -1    0    0  101  102  0.0000000000E+00  0.0000000000E+00  1.7161482534E+02  1.7161482534E+02  0.0000000000E+00 0. 9.
      21   -1    0    0  103  104  0.0000000000E+00  0.0000000000E+00 -8.8891854793E+02  8.8891854793E+02  0.0000000000E+00 0. 9.
 1000006    1    1    2  101    0  7.5539960656E+01  1.4592029242E+02 -4.1065179926E+02  4.8542138151E+02  2.0000000000E+02 0. 9.
-1000006    1    1    2    0  104 -9.3662684335E+01 -1.2015047792E+02  1.5057030375E+01  2.5186414978E+02  2.0000000000E+02 0. 9.
      21    1    1    2  103  102  1.8122723678E+01 -2.5769814496E+01 -3.2170895371E+02  3.2324784198E+02  0.0000000000E+00 0. 9.
#  0.2526599E+03  0.2526599E+03  0.3150423E+02
# model T2tt_200_0  18.5245 
</event>
<event>
     5     6  1.000000E+00  3.567231E+02  7.957747E-02  1.068754E-01
      21    -1    0    0  101  102  0.0000000000E+00  0.0000000000E+00  1.7662031771E+02  1.7662031770E+02  0.0000000000E+00 0. 9.
      -5   -1    0    0    0  101  0.0000000000E+00  0.0000000000E+00 -9.4031925626E+02  9.4031925625E+02  0.0000000000E+00 0. 9.
 1000006    1    1    2  103    0  7.9315095208E+01 -3.2909485803E+02 -2.8361158138E+02  4.8479876135E+02  2.0000000000E+02 0. 9.
-1000006    1    1    2    0  102 -6.1310214308E+01  2.6378800881E+02 -4.3724132379E+02  5.5183605464E+02  2.0000000000E+02 0. 9.
      -5    1    1    2    0  103 -1.8004880900E+01  6.5306849221E+01 -4.2846033375E+01  8.0304757982E+01  4.8899168968E+00 0. 9.
#  0.6560440E+03  0.6560440E+03  0.6791960E+02
# model T2tt_200_0  18.5245 
</event>
<event>
     4     7  1.000000E+00  2.324988E+02  7.957747E-02  1.131944E-01
      21    -1    0    0  101  102  0.0000000000E+00  0.0000000000E+00  7.0975114457E+01  7.0975114457E+01  0.0000000000E+00 0. 9.
      21   -1    0    0  103  101  0.0000000000E+00  0.0000000000E+00 -7.6255528193E+02  7.6255528193E+02  0.0000000000E+00 0. 9.
 1000006    1    1    2  103    0  9.7258697953E+01 -6.7797190420E+01 -3.3115552099E+02  4.0462290152E+02  2.0000000000E+02 0. 9.
-1000006    1    1    2    0  102 -9.7258697953E+01  6.7797190420E+01 -3.6042464648E+02  4.2890749486E+02  2.0000000000E+02 0. 9.
#  0.2324988E+03  0.2324988E+03
# model T2tt_200_0  18.5245 
</event>
<event>
     5     6  1.000000E+00  2.339855E+02  7.957747E-02  1.130949E-01
      21    -1    0    0  101  102  0.0000000000E+00  0.0000000000E+00  4.6984989258E+02  4.6984989258E+02  0.0000000000E+00 0. 9.
      21   -1    0    0  103  104  0.0000000000E+00  0.0000000000E+00 -2.3060134265E+02  2.3060134265E+02  0.0000000000E+00 0. 9.
 1000006    1    1    2  101    0  2.2992944953E+01  1.2314413646E+02  2.1200002469E+02  3.1723361160E+02  2.0000000000E+02 0. 9.
-1000006    1    1    2    0  104 -6.2561959692E+01 -1.0351390485E+02  1.3278247441E+02  2.6881278394E+02  2.0000000000E+02 0. 9.
      21    1    1    2  103  102  3.9569014739E+01 -1.9630231604E+01 -1.0553394916E+02  1.1440483970E+02  0.0000000000E+00 0. 9.
#  0.2339855E+03  0.2339855E+03  0.4417072E+02
# model T2tt_200_0  18.5245 
</event>
<event>
     5     6  1.000000E+00  2.710545E+02  7.957747E-02  1.108454E-01
      21    -1    0    0  101  102  0.0000000000E+00  0.0000000000E+00  3.3940575067E+02  3.3940575067E+02  0.0000000000E+00 0. 9.
      21   -1    0    0  103  101  0.0000000000E+00  0.0000000000E+00 -3.2422801673E+02  3.2422801673E+02  0.0000000000E+00 0. 9.
 1000006    1    1    2  104    0  1.6296779804E+02 -1.9227530671E+01  4.8778787158E+01  2.6326331155E+02  2.0000000000E+02 0. 9.
-1000006    1    1    2    0  102 -2.0102032720E+02  2.6735281795E+01  6.6960902012E+01  2.9258795197E+02  2.0000000000E+02 0. 9.
      21    1    1    2  103  104  3.8052529166E+01 -7.5077511241E+00 -1.0056195523E+02  1.0778250388E+02  0.0000000000E+00 0. 9.
#  0.2710545E+03  0.2710545E+03  0.3878610E+02
# model T2tt_200_0  18.5245 
</event>
<event>
     4     7  1.000000E+00  2.029825E+02  7.957747E-02  1.153576E-01
      21    -1    0    0  101  102  0.0000000000E+00  0.0000000000E+00  1.3073338050E+02  1.3073338050E+02  0.0000000000E+00 0. 9.
      21   -1    0    0  102  103  0.0000000000E+00  0.0000000000E+00 -3.2716415470E+02  3.2716415470E+02  0.0000000000E+00 0. 9.
 1000006    1    1    2  101    0  2.6972080808E+00 -3.4563479054E+01 -5.4359848174E+01  2.1013543754E+02  2.0000000000E+02 0. 9.
-1000006    1    1    2    0  103 -2.6972080808E+00  3.4563479054E+01 -1.4207092602E+02  2.4776209766E+02  2.0000000000E+02 0. 9.
#  0.2029825E+03  0.2029825E+03
# model T2tt_200_0  18.5245 
</event>
<event>
     6     4  1.000000E+00  6.121059E+02  7.957747E-02  9.984501E-02
       2    -1    0    0  101    0  0.0000000000E+00  0.0000000000E+00  2.9482573129E+02  2.9482573129E+02  0.0000000000E+00 0. 9.
      21   -1    0    0  102  103  0.0000000000E+00  0.0000000000E+00 -1.7326266012E+03  1.7326266012E+03  0.0000000000E+00 0. 9.
 1000006    1    1    2  101    0  2.0468094371E+02  5.3956222893E+02 -7.5281571523E+02  9.6940867992E+02  2.0000000000E+02 0. 9.
-1000006    1    1    2    0  104 -2.2744421371E+02 -5.3402825928E+02 -6.1083347845E+02  8.6604537436E+02  2.0000000000E+02 0. 9.
      21    1    1    2  104  103 -4.9606146407E+01 -6.3275292515E+01 -1.4054737889E+01  8.1621492644E+01  0.0000000000E+00 0. 9.
       2    1    1    2  102    0  7.2369416415E+01  5.7741322865E+01 -6.0096938389E+01  1.1037678561E+02  0.0000000000E+00 0. 9.
#  0.6121059E+03  0.6121059E+03  0.8040232E+02  0.8506558E+02
# model T2tt_200_0  18.5245 
</event>
<event>
     6     4  1.000000E+00  3.572281E+02  7.957747E-02  1.068557E-01
      21    -1    0    0  101  102  0.0000000000E+00  0.0000000000E+00  3.6547106087E+02  3.6547106087E+02  0.0000000000E+00 0. 9.
      21   -1    0    0  102  103  0.0000000000E+00  0.0000000000E+00 -5.7955740546E+02  5.7955740546E+02  0.0000000000E+00 0. 9.
 1000006    1    1    2  104    0 -4.7311698889E+01 -7.5400106116E+01 -1.3301684028E+02  2.5615825704E+02  2.0000000000E+02 0. 9.
-1000006    1    1    2    0  103 -2.1641947304E+02  2.1190592583E+02 -1.2819343408E+02  3.8493514551E+02  2.0000000000E+02 0. 9.
       3    1    1    2  101    0  1.1384710041E+02 -5.7559174381E+01  4.2514039440E+01  1.3446807939E+02  0.0000000000E+00 0. 9.
      -3    1    1    2    0  104  1.4988407152E+02 -7.8946645333E+01  4.6098903262E+00  1.6946698437E+02  0.0000000000E+00 0. 9.
#  0.2189145E+03  0.3572281E+03  0.2992988E+03  0.2992988E+03
# model T2tt_200_0  18.5245 
</event>
<event>
     5     6  1.000000E+00  2.035906E+02  7.957747E-02  1.153090E-01
       2    -1    0    0  101    0  0.0000000000E+00  0.0000000000E+00  9.9022532445E+01  9.9022532445E+01  0.0000000000E+00 0. 9.
      21   -1    0    0  102  101  0.0000000000E+00  0.0000000000E+00 -8.5049068639E+02  8.5049068639E+02  0.0000000000E+00 0. 9.
 1000006    1    1    2  102    0  1.1981003432E+01  6.8594409667E+01 -1.1023347899E+02  2.3874705730E+02  2.0000000000E+02 0. 9.
-1000006    1    1    2    0  103 -2.0121622069E+01 -2.4582264870E+01 -6.3383605651E+02  6.6540011568E+02  2.0000000000E+02 0. 9.
       2    1    1    2  103    0  8.1406186364E+00 -4.4012144797E+01 -7.3986184528E+00  4.5366045854E+01  0.0000000000E+00 0. 9.
#  0.2035906E+03  0.2035906E+03  0.4475867E+02
# model T2tt_200_0  18.5245 
</event>
<event>
     4     7  1.000000E+00  2.097664E+02  7.957747E-02  1.148262E-01
      21    -1    0    0  101  102  0.0000000000E+00  0.0000000000E+00  7.9983397134E+01  7.9983397134E+01  0.0000000000E+00 0. 9.
      21   -1    0    0  103  101  0.0000000000E+00  0.0000000000E+00 -6.4922868547E+02  6.4922868547E+02  0.0000000000E+00 0. 9.
 1000006    1    1    2  103    0 -6.1106329168E+01  1.6369013681E+01 -1.4217973811E+02  2.5341074563E+02  2.0000000000E+02 0. 9.
-1000006    1    1    2    0  102  6.1106329168E+01 -1.6369013681E+01 -4.2706555023E+02  4.7580133697E+02  2.0000000000E+02 0. 9.
#  0.2097664E+03  0.2097664E+03
# model T2tt_200_0  18.5245 
</event>
<event>
     6     4  1.000000E+00  2.067464E+02  7.957747E-02  1.150600E-01
       2    -1    0    0  101    0  0.0000000000E+00  0.0000000000E+00  8.8699386957E+02  8.8699386957E+02  0.0000000000E+00 0. 9.
      21   -1    0    0  102  103  0.0000000000E+00  0.0000000000E+00 -2.3947852443E+02  2.3947852443E+02  0.0000000000E+00 0. 9.
 1000006    1    1    2  101    0 -5.8945347369E+01 -2.2568421039E+01  5.3247347473E+01  2.1637737316E+02  2.0000000000E+02 0. 9.
-1000006    1    1    2    0  104  1.9906397276E+01  6.3498836235E+01  8.8962620142E+01  2.2878530250E+02  2.0000000000E+02 0. 9.
      21    1    1    2  104  103  6.9970419800E+01  1.1533116706E+01 -7.1848807745E+01  1.0095109510E+02  0.0000000000E+00 0. 9.
       2    1    1    2  102    0 -3.0931469707E+01 -5.2463531902E+01  5.7715418527E+02  5.8035862324E+02  0.0000000000E+00 0. 9.
#  0.2067464E+03  0.2067464E+03  0.6910622E+02  0.6090302E+02
# model T2tt_200_0  18.5245 
</event>
<event>
     5     6  1.000000E+00  2.344286E+02  7.957747E-02  1.130653E-01
      21    -1    0    0  101  102  0.0000000000E+00  0.0000000000E+00  1.0031113753E+03  1.0031113753E+03  0.0000000000E+00 0. 9.
      21   -1    0    0  102  103  0.0000000000E+00  0.0000000000E+00 -1.5202803654E+02  1.5202803654E+02  0.0000000000E+00 0. 9.
 1000006    1    1    2  101    0  4.1381710715E+00 -1.1956017781E+02  7.3245634078E+02  7.6863778968E+02  2.0000000000E+02 0. 9.
-1000006    1    1    2    0  104  6.8838879343E+01  1.2978252263E+02  1.6630763818E+02  2.9873152663E+02  2.0000000000E+02 0. 9.
      21    1    1    2  104  103 -7.2977050414E+01 -1.0222344815E+01 -4.7680640196E+01  8.7770095535E+01  0.0000000000E+00 0. 9.
#  0.2344286E+03  0.2344286E+03  0.7368953E+02
# model T2tt_200_0  18.5245 
</event>
<event>
     4     7  1.000000E+00  2.334358E+02  7.957747E-02  1.131316E-01
      21    -1    0    0  101  102  0.0000000000E+00  0.0000000000E+00  6.8808603115E+01  6.8808603115E+01  0.0000000000E+00 0. 9.
      21   -1    0    0  102  103  0.0000000000E+00  0.0000000000E+00 -9.1992045282E+02  9.1992045282E+02  0.0000000000E+00 0. 9.
 1000006    1    1    2  101    0  1.2483836106E+01 -1.1973479810E+02 -2.4116293461E+02  3.3563645373E+02  2.0000000000E+02 0. 9.
-1000006    1    1    2    0  103 -1.2483836106E+01  1.1973479810E+02 -6.0994891509E+02  6.5309260220E+02  2.0000000000E+02 0. 9.
#  0.2334358E+03  0.2334358E+03
# model T2tt_200_0  18.5245 
</event>
<event>
     6     4  1.000000E+00  2.145952E+02  7.957747E-02  1.144613E-01
      21    -1    0    0  101  102  0.0000000000E+00  0.0000000000E+00  5.1715552864E+02  5.1715552864E+02  0.0000000000E+00 0. 9.
       2   -1    0    0  103    0  0.0000000000E+00  0.0000000000E+00 -6.3107390306E+02  6.3107390306E+02  0.0000000000E+00 0. 9.
 1000006    1    1    2  104    0  1.4319416677E+01  7.3022255889E+01  3.1909594221E+02  3.8387434908E+02  2.0000000000E+02 0. 9.
-1000006    1    1    2    0  102  3.5154954735E+01 -8.9046616836E+01  8.4103163775E+01  2.3714660649E+02  2.0000000000E+02 0. 9.
      21    1    1    2  103  104 -6.4054951041E+00  3.0916324487E+01 -5.9773472359E+01  6.7599685540E+01  0.0000000000E+00 0. 9.
       2    1    1    2  101    0 -4.3068876308E+01 -1.4891963540E+01 -4.5734400805E+02  4.5960879058E+02  0.0000000000E+00 0. 9.
#  0.2145952E+03  0.2145952E+03  0.3157292E+02  0.4928864E+02
# model T2tt_200_0  18.5245 
</event>
<event>
     5     6  1.000000E+00  2.653239E+02  7.957747E-02  1.111667E-01
      21    -1    0    0  101  102  0.0000000000E+00  0.0000000000E+00  9.4685146292E+02  9.4685146292E+02  0.0000000000E+00 0. 9.
      21   -1    0    0  103  104  0.0000000000E+00  0.0000000000E+00 -9.6472433896E+01  9.6472433896E+01  0.0000000000E+00 0. 9.
 1000006    1    1    2  101    0  1.3165533533E+02  1.0145506435E+02  3.9160952653E+02  4.7008964961E+02  2.0000000000E+02 0. 9.
-1000006    1    1    2    0  104 -1.8079674198E+02 -5.6181530509E+01  3.8912748701E+02  4.7672217006E+02  2.0000000000E+02 0. 9.
      21    1    1    2  103  102  4.9141406651E+01 -4.5273533837E+01  6.9642015484E+01  9.6512077143E+01  0.0000000000E+00 0. 9.
#  0.2653239E+03  0.2653239E+03  0.6681744E+02
# model T2tt_200_0  18.5245 
</event>
<event>
     4     7  1.000000E+00  2.404078E+02  7.957747E-02  1.126739E-01
       2    -1    0    0  101    0  0.0000000000E+00  0.0000000000E+00  2.8487628676E+02  2.8487628676E+02  0.0000000000E+00 0. 9.
      -2   -1    0    0    0  102  0.0000000000E+00  0.0000000000E+00 -2.1801163629E+02  2.1801163629E+02  0.0000000000E+00 0. 9.
 1000006    1    1    2  101    0  2.7891031375E+01 -1.3045296797E+02  9.9674560550E+01  2.6025161768E+02  2.0000000000E+02 0. 9.
-1000006    1    1    2    0  102 -2.7891031375E+01  1.3045296797E+02 -3.2809910075E+01  2.4263630537E+02  2.0000000000E+02 0. 9.
#  0.3583649E+03  0.3583649E+03
# model T2tt_200_0  18.5245 
</event>
<event>
     4     7  1.000000E+00  2.518297E+02  7.957747E-02  1.119594E-01
      -2    -1    0    0    0  101  0.0000000000E+00  0.0000000000E+00  3.5055366201E+02  3.5055366201E+02  0.0000000000E+00 0. 9.
       2   -1    0    0  102    0  0.0000000000E+00  0.0000000000E+00 -1.8162105718E+02  1.8162105718E+02  0.0000000000E+00 0. 9.
 1000006    1    1    2  102    0  1.4121259112E+02  5.8967752003E+01  1.0113123716E+02  2.7137744710E+02  2.0000000000E+02 0. 9.
-1000006    1    1    2    0  101 -1.4121259112E+02 -5.8967752003E+01  6.7801367672E+01  2.6079727208E+02  2.0000000000E+02 0. 9.
#  0.3669764E+03  0.3669764E+03
# model T2tt_200_0  18.5245 
</event>
<event>
     6     4  1.000000E+00  3.745759E+02  7.957747E-02  1.061991E-01
      21    -1    0    0  101  102  0.0000000000E+00  0.0000000000E+00  7.6492798482E+02  7.6492798482E+02  0.0000000000E+00 0. 9.
      21   -1    0    0  103  104  0.0000000000E+00  0.0000000000E+00 -6.1228620803E+02  6.1228620803E+02  0.0000000000E+00 0. 9.
 1000006    1    1    2  101    0 -1.5217836784E+02  2.3033201678E+02 -1.0176291742E+02  3.5576225904E+02  2.0000000000E+02 0. 9.
-1000006    1    1    2    0  105  3.2886286712E+02 -1.6752363753E+02  6.8520813609E+01  4.2533522826E+02  2.0000000000E+02 0. 9.
      21    1    1    2  103  102 -6.2500196257E+01 -6.0502361373E+01  3.6965304947E+02  3.7975016425E+02  0.0000000000E+00 0. 9.
      21    1    1    2  105  104 -1.1418430302E+02 -2.3060178763E+00 -1.8376916886E+02  2.1636654131E+02  0.0000000000E+00 0. 9.
#  0.3745759E+03  0.3745759E+03  0.8698741E+02  0.1168947E+03
# model T2tt_200_0  18.5245 
</event>
<event>
     6     4  1.000000E+00  3.910717E+02  7.957747E-02  1.056093E-01
      -2    -1    0    0    0  101  0.0000000000E+00  0.0000000000E+00  1.3475671934E+03  1.3475671934E+03  0.0000000000E+00 0. 9.
      21   -1    0    0  102  103  0.0000000000E+00  0.0000000000E+00 -4.6265415162E+02  4.6265415162E+02  0.0000000000E+00 0. 9.
 1000006    1    1    2  102    0 -2.8709031433E+02  4.6741416786E+02  2.3304409988E+02  6.2865444036E+02  2.0000000000E+02 0. 9.
-1000006    1    1    2    0  101  1.4540899505E+02 -1.7514638435E+02 -7.4154643312E+01  3.1195984183E+02  2.0000000000E+02 0. 9.
      21    1    1    2  104  103  1.1192075128E+02  1.4214354573E+01  4.3640943635E+01  1.2096625316E+02  0.0000000000E+00 0. 9.
      -2    1    1    2    0  104  2.9760567998E+01 -3.0648213808E+02  6.8238264159E+02  7.4864080967E+02  0.0000000000E+00 0. 9.
#  0.3910717E+03  0.3910717E+03  0.1128198E+03  0.3077896E+03
# model T2tt_200_0  18.5245 
</event>
<event>
     4     7  1.000000E+00  2.042283E+02  7.957747E-02  1.152583E-01
      21    -1    0    0  101  102  0.0000000000E+00  0.0000000000E+00  4.1001093998E+02  4.1001093998E+02  0.0000000000E+00 0. 9.
      21   -1    0    0  103  101  0.0000000000E+00  0.0000000000E+00 -2.0570960120E+02  2.0570960120E+02  0.0000000000E+00 0. 9.
 1000006    1    1    2  103    0  4.0235326405E+01 -9.5033241957E+00 -1.1672961504E+02  2.3523392121E+02  2.0000000000E+02 0. 9.
-1000006    1    1    2    0  102 -4.0235326405E+01  9.5033241957E+00  3.2103095382E+02  3.8048661996E+02  2.0000000000E+02 0. 9.
#  0.2042283E+03  0.2042283E+03
# model T2tt_200_0  18.5245 
</event>
<event>
     4     7  1.000000E+00  2.087644E+02  7.957747E-02  1.149033E-01
      21    -1    0    0  101  102  0.0000000000E+00  0.0000000000E+00  6.9953275766E+02  6.9953275766E+02  0.0000000000E+00 0. 9.
      21   -1    0    0  103  101  0.0000000000E+00  0.0000000000E+00 -7.4045512335E+01  7.4045512335E+01  0.0000000000E+00 0. 9.
 1000006    1    1    2  103    0  2.3374722338E+00  5.9809121990E+01  1.5870989085E+02  2.6224306341E+02  2.0000000000E+02 0. 9.
-1000006    1    1    2    0  102 -2.3374722338E+00 -5.9809121990E+01  4.6677735447E+02  5.1133520659E+02  2.0000000000E+02 0. 9.
#  0.2087644E+03  0.2087644E+03
# model T2tt_200_0  18.5245 
</event>
<event>
     4     7  1.000000E+00  2.330914E+02  7.957747E-02  1.131546E-01
      21    -1    0    0  101  102  0.0000000000E+00  0.0000000000E+00  3.9165867950E+02  3.9165867950E+02  0.0000000000E+00 0. 9.
      21   -1    0    0  102  103  0.0000000000E+00  0.0000000000E+00 -1.4348253282E+02  1.4348253282E+02  0.0000000000E+00 0. 9.
 1000006    1    1    2  101    0 -4.0527727788E+01  1.1264596999E+02  1.7282679428E+02  2.9017358959E+02  2.0000000000E+02 0. 9.
-1000006    1    1    2    0  103  4.0527727788E+01 -1.1264596999E+02  7.5349352400E+01  2.4496762272E+02  2.0000000000E+02 0. 9.
#  0.2330914E+03  0.2330914E+03
# model T2tt_200_0  18.5245 
</event>
<event>
     5     6  1.000000E+00  2.734418E+02  7.957747E-02  1.107141E-01
      21    -1    0    0  101  102  0.0000000000E+00  0.0000000000E+00  2.6263247997E+02  2.6263247997E+02  0.0000000000E+00 0. 9.
      21   -1    0    0  102  103  0.0000000000E+00  0.0000000000E+00 -3.4631015036E+02  3.4631015036E+02  0.0000000000E+00 0. 9.
 1000006    1    1    2  104    0  1.9248475369E+02  4.2727396880E+01 -1.3976858883E+01  2.8119630764E+02  2.0000000000E+02 0. 9.
-1000006    1    1    2    0  103 -1.8049296748E+02  1.5852924845E+00 -7.9322764966E+01  2.8084217188E+02  2.0000000000E+02 0. 9.
      21    1    1    2  101  104 -1.1991786202E+01 -4.4312689365E+01  9.6219534565E+00  4.6904150812E+01  0.0000000000E+00 0. 9.
#  0.2734418E+03  0.2734418E+03  0.4590662E+02
# model T2tt_200_0  18.5245 
</event>
<event>
     6     4  1.000000E+00  2.056493E+02  7.957747E-02  1.151460E-01
       2    -1    0    0  101    0  0.0000000000E+00  0.0000000000E+00  2.1572174200E+03  2.1572174200E+03  0.0000000000E+00 0. 9.
      21   -1    0    0  102  103  0.0000000000E+00  0.0000000000E+00 -4.7374945756E+02  4.7374945756E+02  0.0000000000E+00 0. 9.
 1000006    1    1    2  101    0 -7.7321441331E+01  4.9305113637E+01 -2.5759254877E+02  3.3876765002E+02  2.0000000000E+02 0. 9.
-1000006    1    1    2    0  103  5.3810651236E+01  4.3431760819E+01  1.0986675175E+02  2.3843784761E+02  2.0000000000E+02 0. 9.
      21    1    1    2  102  104  5.7124943964E+01 -9.3705262748E+01 -8.4043474453E+01  1.3822894446E+02  0.0000000000E+00 0. 9.
       2    1    1    2  104    0 -3.3614153869E+01  9.6838829158E-01  1.9152372339E+03  1.9155324354E+03  0.0000000000E+00 0. 9.
#  0.2056493E+03  0.2056493E+03  0.1077383E+03  0.3362810E+02
# model T2tt_200_0  18.5245 
</event>
<event>
     5     6  1.000000E+00  2.410781E+02  7.957747E-02  1.126307E-01
      21    -1    0    0  101  102  0.0000000000E+00  0.0000000000E+00  1.3109280702E+02  1.3109280702E+02  0.0000000000E+00 0. 9.
      21   -1    0    0  103  104  0.0000000000E+00  0.0000000000E+00 -7.4382705190E+02  7.4382705190E+02  0.0000000000E+00 0. 9.
 1000006    1    1    2  101    0 -7.8630297256E+01 -3.4585116261E+00 -1.9935476407E+02  2.9315014397E+02  2.0000000000E+02 0. 9.
-1000006    1    1    2    0  104  1.9844589720E+02 -2.8343365782E+01 -3.1453992163E+02  4.2322509708E+02  2.0000000000E+02 0. 9.
      21    1    1    2  103  102 -1.1981559994E+02  3.1801877408E+01 -9.8839559178E+01  1.5854461787E+02  0.0000000000E+00 0. 9.
#  0.2410781E+03  0.2410781E+03  0.1239643E+03
# model T2tt_200_0  18.5245 
</event>
<event>
     4     7  1.000000E+00  2.581347E+02  7.957747E-02  1.115824E-01
       1   -1    0    0  101    0  0.0000000000E+00  0.0000000000E+00  7.8876666237E+02  7.8876666237E+02  0.0000000000E+00 0. 9.
      -1   -1    0    0    0  102  0.0000000000E+00  0.0000000000E+00 -1.0866520317E+02  1.0866520317E+02  0.0000000000E+00 0. 9.
 1000006    1    1    2  101    0  1.3267465617E+02  9.5031430736E+01  1.2835219614E+02  2.8828427545E+02  2.0000000000E+02 0. 9.
-1000006    1    1    2    0  102 -1.3267465617E+02 -9.5031430736E+01  5.5174926306E+02  6.0914759008E+02  2.0000000000E+02 0. 9.
#  0.4720656E+03  0.4720656E+03
# model T2tt_200_0  18.5245 
# mrenna fix
</event>
<event>
     5     6  1.000000E+00  2.226849E+02  7.957747E-02  1.138727E-01
      21    -1    0    0  101  102  0.0000000000E+00  0.0000000000E+00  1.6279272564E+02  1.6279272564E+02  0.0000000000E+00 0. 9.
      21   -1    0    0  102  103  0.0000000000E+00  0.0000000000E+00 -1.2088414376E+03  1.2088414376E+03  0.0000000000E+00 0. 9.
 1000006    1    1    2  101    0 -3.5838463446E+01 -8.4197129031E+01 -2.1206329574E+02  3.0552314707E+02  2.0000000000E+02 0. 9.
-1000006    1    1    2    0  104  6.8789685995E+01  7.5577559400E+01  6.7375267398E+00  2.2469842601E+02  2.0000000000E+02 0. 9.
      21    1    1    2  104  103 -3.2951222549E+01  8.6195696311E+00 -8.4072294295E+02  8.4141259015E+02  0.0000000000E+00 0. 9.
#  0.2226849E+03  0.2226849E+03  0.3405995E+02
# model T2tt_200_0  18.5245 
</event>
<event>
     6     4  1.000000E+00  2.261424E+02  7.957747E-02  1.136295E-01
      21    -1    0    0  101  102  0.0000000000E+00  0.0000000000E+00  4.7089919385E+02  4.7089919385E+02  0.0000000000E+00 0. 9.
      21   -1    0    0  103  104  0.0000000000E+00  0.0000000000E+00 -3.9193792904E+02  3.9193792904E+02  0.0000000000E+00 0. 9.
 1000006    1    1    2  101    0  1.0639032747E+01  1.5003881271E+02  2.9006875314E+02  3.8309883305E+02  2.0000000000E+02 0. 9.
-1000006    1    1    2    0  105  3.7860541891E+00 -1.9626755658E+01  2.3665338990E+01  2.0238476231E+02  2.0000000000E+02 0. 9.
      21    1    1    2  103  102 -4.1338905009E+01 -8.0307071676E+01 -1.5468733567E+02  1.7912649900E+02  0.0000000000E+00 0. 9.
      21    1    1    2  105  104  2.6913818073E+01 -5.0104985380E+01 -8.0085491642E+01  9.8227028535E+01  0.0000000000E+00 0. 9.
#  0.2261424E+03  0.2261424E+03  0.1476709E+03  0.5376934E+02
# model T2tt_200_0  18.5245 
</event>
<event>
     5     6  1.000000E+00  2.180961E+02  7.957747E-02  1.142031E-01
      21    -1    0    0  101  102  0.0000000000E+00  0.0000000000E+00  2.7861632856E+02  2.7861632856E+02  0.0000000000E+00 0. 9.
       2   -1    0    0  103    0  0.0000000000E+00  0.0000000000E+00 -1.0064355809E+03  1.0064355809E+03  0.0000000000E+00 0. 9.
 1000006    1    1    2  103    0 -3.3685952592E+01 -1.2120470717E+02 -2.1797276157E+02  3.2146142728E+02  2.0000000000E+02 0. 9.
-1000006    1    1    2    0  102  8.5491558291E+01 -8.2286836985E+01  1.4624635178E+02  2.7471426153E+02  2.0000000000E+02 0. 9.
       2    1    1    2  101    0 -5.1805605699E+01  2.0349154415E+02 -6.5609284254E+02  6.8887622063E+02  0.0000000000E+00 0. 9.
#  0.2180961E+03  0.2180961E+03  0.2099825E+03
# model T2tt_200_0  18.5245 
</event>
<event>
     6     4  1.000000E+00  3.833849E+02  7.957747E-02  1.058802E-01
      21    -1    0    0  101  102  0.0000000000E+00  0.0000000000E+00  1.2306625020E+02  1.2306625020E+02  0.0000000000E+00 0. 9.
       2   -1    0    0  103    0  0.0000000000E+00  0.0000000000E+00 -1.5384192386E+03  1.5384192386E+03  0.0000000000E+00 0. 9.
 1000006    1    1    2  101    0  2.3765926103E+02  2.3436699556E+02 -7.6800817160E+02  8.6095665663E+02  2.0000000000E+02 0. 9.
-1000006    1    1    2    0  104 -1.9116835864E+02 -2.5754555243E+02 -5.4642901672E+02  6.6442435479E+02  2.0000000000E+02 0. 9.
      21    1    1    2  103  102 -5.9990819722E+01 -4.5773780665E+00 -6.1409674825E+01  8.5970919519E+01  0.0000000000E+00 0. 9.
       2    1    1    2  104    0  1.3499917327E+01  2.7755934929E+01 -3.9506125285E+01  5.0133557889E+01  0.0000000000E+00 0. 9.
#  0.6901764E+03  0.6901764E+03  0.5860705E+02  0.3086486E+02
# model T2tt_200_0  18.5245 
</event>
<event>
     5     6  1.000000E+00  2.036247E+02  7.957747E-02  1.153063E-01
      21    -1    0    0  101  102  0.0000000000E+00  0.0000000000E+00  3.6834790532E+02  3.6834790532E+02  0.0000000000E+00 0. 9.
      21   -1    0    0  103  104  0.0000000000E+00  0.0000000000E+00 -2.1823546647E+02  2.1823546647E+02  0.0000000000E+00 0. 9.
 1000006    1    1    2  103    0 -1.1201510771E+01 -9.0259022127E+01 -5.8516128586E+01  2.2736820847E+02  2.0000000000E+02 0. 9.
-1000006    1    1    2    0  102 -1.7021987599E+01  2.0985250857E+01  1.9963539453E+02  2.8387395013E+02  2.0000000000E+02 0. 9.
      21    1    1    2  101  104  2.8223498370E+01  6.9273771270E+01  8.9931729067E+00  7.5341213191E+01  0.0000000000E+00 0. 9.
#  0.2036247E+03  0.2036247E+03  0.7480255E+02
# model T2tt_200_0  18.5245 
</event>
<event>
     5     6  1.000000E+00  2.075913E+02  7.957747E-02  1.149942E-01
      21    -1    0    0  101  102  0.0000000000E+00  0.0000000000E+00  6.3935105961E+02  6.3935105961E+02  0.0000000000E+00 0. 9.
      21   -1    0    0  103  104  0.0000000000E+00  0.0000000000E+00 -8.8658354325E+01  8.8658354325E+01  0.0000000000E+00 0. 9.
 1000006    1    1    2  103    0  4.5412088137E+01  9.4624267955E+00  1.5171433727E+02  2.5528226613E+02  2.0000000000E+02 0. 9.
-1000006    1    1    2    0  102 -7.3220483230E+01  1.7016137453E+01  3.1807894692E+02  3.8317751052E+02  2.0000000000E+02 0. 9.
      21    1    1    2  101  104  2.7808395093E+01 -2.6478564249E+01  8.0899421096E+01  8.9549637274E+01  0.0000000000E+00 0. 9.
#  0.2075913E+03  0.2075913E+03  0.3839819E+02
# model T2tt_200_0  18.5245 
</event>
<event>
     4     7  1.000000E+00  2.318825E+02  7.957747E-02  1.132359E-01
      21    -1    0    0  101  102  0.0000000000E+00  0.0000000000E+00  7.8375626163E+02  7.8375626163E+02  0.0000000000E+00 0. 9.
      21   -1    0    0  103  101  0.0000000000E+00  0.0000000000E+00 -9.0146487241E+01  9.0146487241E+01  0.0000000000E+00 0. 9.
 1000006    1    1    2  103    0  9.5082326315E+01  6.8766734822E+01  1.3320665679E+02  2.6742013015E+02  2.0000000000E+02 0. 9.
-1000006    1    1    2    0  102 -9.5082326315E+01 -6.8766734822E+01  5.6040311760E+02  6.0648261872E+02  2.0000000000E+02 0. 9.
#  0.2318825E+03  0.2318825E+03
# model T2tt_200_0  18.5245 
</event>
<event>
     5     6  1.000000E+00  2.100551E+02  7.957747E-02  1.148041E-01
      21    -1    0    0  101  102  0.0000000000E+00  0.0000000000E+00  1.0395534608E+03  1.0395534608E+03  0.0000000000E+00 0. 9.
      21   -1    0    0  102  103  0.0000000000E+00  0.0000000000E+00 -1.5784601543E+02  1.5784601543E+02  0.0000000000E+00 0. 9.
 1000006    1    1    2  101    0 -2.6159465354E+01  6.1874549368E+01  8.9815528877E+02  9.2260267734E+02  2.0000000000E+02 0. 9.
-1000006    1    1    2    0  104 -3.3637504844E+01 -4.9741977950E+01 -3.3390876931E+01  2.1147268562E+02  2.0000000000E+02 0. 9.
      21    1    1    2  104  103  5.9796970198E+01 -1.2132571418E+01  1.6943033510E+01  6.3324113248E+01  0.0000000000E+00 0. 9.
#  0.2100551E+03  0.2100551E+03  0.6101538E+02
# model T2tt_200_0  18.5245 
</event>
<event>
     5     6  1.000000E+00  2.278467E+02  7.957747E-02  1.135113E-01
      21    -1    0    0  101  102  0.0000000000E+00  0.0000000000E+00  3.3215353425E+02  3.3215353425E+02  0.0000000000E+00 0. 9.
      21   -1    0    0  103  104  0.0000000000E+00  0.0000000000E+00 -1.9776536404E+02  1.9776536404E+02  0.0000000000E+00 0. 9.
 1000006    1    1    2  103    0  1.0152881611E+02  5.5346544319E+01  3.5843461729E+01  2.3378642864E+02  2.0000000000E+02 0. 9.
-1000006    1    1    2    0  102 -6.7900958121E+01 -8.4055212672E+01  1.0678584276E+02  2.5115540031E+02  2.0000000000E+02 0. 9.
      21    1    1    2  101  104 -3.3627857994E+01  2.8708668353E+01 -8.2411342696E+00  4.4977069334E+01  0.0000000000E+00 0. 9.
#  0.2278467E+03  0.2278467E+03  0.4421561E+02
# model T2tt_200_0  18.5245 
</event>
<event>
     5     6  1.000000E+00  2.434189E+02  7.957747E-02  1.124814E-01
      21    -1    0    0  101  102  0.0000000000E+00  0.0000000000E+00  3.6570570424E+02  3.6570570424E+02  0.0000000000E+00 0. 9.
      21   -1    0    0  103  104  0.0000000000E+00  0.0000000000E+00 -1.2207176101E+03  1.2207176101E+03  0.0000000000E+00 0. 9.
 1000006    1    1    2  103    0  2.7115702887E+01 -1.4192546371E+02 -8.1819087859E+02  8.5458435067E+02  2.0000000000E+02 0. 9.
-1000006    1    1    2    0  102 -5.5539181734E+01  1.1746148603E+02 -3.4608727695E+02  4.2030727412E+02  2.0000000000E+02 0. 9.
      21    1    1    2  101  104  2.8423478847E+01  2.4463977684E+01  3.0926624972E+02  3.1153168952E+02  0.0000000000E+00 0. 9.
#  0.2434189E+03  0.2434189E+03  0.3750174E+02
# model T2tt_200_0  18.5245 
</event>
<event>
     6     4  1.000000E+00  2.054759E+02  7.957747E-02  1.151597E-01
      21    -1    0    0  101  102  0.0000000000E+00  0.0000000000E+00  2.9873983906E+02  2.9873983906E+02  0.0000000000E+00 0. 9.
       2   -1    0    0  103    0  0.0000000000E+00  0.0000000000E+00 -3.1219278947E+02  3.1219278947E+02  0.0000000000E+00 0. 9.
 1000006    1    1    2  101    0  4.9786154770E+01 -2.1938530167E+01 -9.9959007506E+01  2.3011250182E+02  2.0000000000E+02 0. 9.
-1000006    1    1    2    0  104 -2.0722024503E+01 -5.7685141440E+01  1.4685645471E+02  2.5558520328E+02  2.0000000000E+02 0. 9.
      21    1    1    2  103  102 -4.6247509567E+01  3.8204865527E+01 -1.5818136698E+01  6.2037547821E+01  0.0000000000E+00 0. 9.
       2    1    1    2  104    0  1.7183379300E+01  4.1418806080E+01 -4.4532260921E+01  6.3197375610E+01  0.0000000000E+00 0. 9.
#  0.2054759E+03  0.2054759E+03  0.6230175E+02  0.4484179E+02
# model T2tt_200_0  18.5245 
</event>
<event>
     5     6  1.000000E+00  2.442814E+02  7.957747E-02  1.124268E-01
       2    -1    0    0  101    0  0.0000000000E+00  0.0000000000E+00  8.1621769369E+02  8.1621769369E+02  0.0000000000E+00 0. 9.
      21   -1    0    0  102  101  0.0000000000E+00  0.0000000000E+00 -7.8595331364E+02  7.8595331364E+02  0.0000000000E+00 0. 9.
 1000006    1    1    2  102    0  1.1422173198E+02 -1.1300374838E+02 -3.5009929223E+02  4.3403452124E+02  2.0000000000E+02 0. 9.
-1000006    1    1    2    0  103 -4.8997587642E+01  1.1827610511E+02 -3.5651350346E+02  4.2835952047E+02  2.0000000000E+02 0. 9.
       2    1    1    2  103    0 -6.5224144334E+01 -5.2723567359E+00  7.3687717574E+02  7.3977696562E+02  0.0000000000E+00 0. 9.
#  0.2442814E+03  0.2442814E+03  0.6543689E+02
# model T2tt_200_0  18.5245 
</event>
<event>
     4     7  1.000000E+00  2.590315E+02  7.957747E-02  1.115298E-01
       2    -1    0    0  101    0  0.0000000000E+00  0.0000000000E+00  8.6014804096E+02  8.6014804096E+02  0.0000000000E+00 0. 9.
      -2   -1    0    0    0  102  0.0000000000E+00  0.0000000000E+00 -8.1458759178E+01  8.1458759178E+01  0.0000000000E+00 0. 9.
 1000006    1    1    2  101    0 -3.1045109042E+01 -1.6165869070E+02  4.8626349795E+02  5.5095328342E+02  2.0000000000E+02 0. 9.
-1000006    1    1    2    0  102  3.1045109042E+01  1.6165869070E+02  2.9242578384E+02  3.9065351672E+02  2.0000000000E+02 0. 9.
#  0.4003328E+03  0.4003328E+03
# model T2tt_200_0  18.5245 
</event>
<event>
     5     6  1.000000E+00  2.177132E+02  7.957747E-02  1.142311E-01
      21    -1    0    0  101  102  0.0000000000E+00  0.0000000000E+00  5.9338282961E+02  5.9338282961E+02  0.0000000000E+00 0. 9.
      21   -1    0    0  103  104  0.0000000000E+00  0.0000000000E+00 -1.0284041483E+02  1.0284041483E+02  0.0000000000E+00 0. 9.
 1000006    1    1    2  101    0  8.6652435675E+01 -7.2109412686E+01  1.7586851286E+02  2.8920260342E+02  2.0000000000E+02 0. 9.
-1000006    1    1    2    0  104 -5.9645719296E+01  3.5216683354E+01  2.7029203376E+02  3.4330104883E+02  2.0000000000E+02 0. 9.
      21    1    1    2  103  102 -2.7006716379E+01  3.6892729332E+01  4.4381868159E+01  6.3719592187E+01  0.0000000000E+00 0. 9.
#  0.2177132E+03  0.2177132E+03  0.4572129E+02
# model T2tt_200_0  18.5245 
</event>
<event>
     4     7  1.000000E+00  3.382716E+02  7.957747E-02  1.076208E-01
      21    -1    0    0  101  102  0.0000000000E+00  0.0000000000E+00  1.5456778104E+02  1.5456778104E+02  0.0000000000E+00 0. 9.
      21   -1    0    0  102  103  0.0000000000E+00  0.0000000000E+00 -1.8070346662E+03  1.8070346662E+03  0.0000000000E+00 0. 9.
 1000006    1    1    2  101    0  5.2860209237E+01 -2.6764431688E+02 -7.2661983026E+01  3.4598763830E+02  2.0000000000E+02 0. 9.
-1000006    1    1    2    0  103 -5.2860209237E+01  2.6764431688E+02 -1.5798049022E+03  1.6156148090E+03  2.0000000000E+02 0. 9.
#  0.3382716E+03  0.3382716E+03
# model T2tt_200_0  18.5245 
</event>
<event>
     6     4  1.000000E+00  2.010448E+02  7.957747E-02  1.155135E-01
      21    -1    0    0  101  102  0.0000000000E+00  0.0000000000E+00  1.0288076556E+02  1.0288076556E+02  0.0000000000E+00 0. 9.
      21   -1    0    0  103  104  0.0000000000E+00  0.0000000000E+00 -7.4919902490E+02  7.4919902490E+02  0.0000000000E+00 0. 9.
 1000006    1    1    2  105    0  2.9911382505E+01 -4.3447121970E+01 -1.6684833849E+02  2.6574557620E+02  2.0000000000E+02 0. 9.
-1000006    1    1    2    0  102 -7.3821929578E+00 -3.0997471868E+01 -2.1697876987E+02  2.9680823205E+02  2.0000000000E+02 0. 9.
      21    1    1    2  101  104  1.8549136542E+00  3.9439085371E+01 -2.1835715415E+01  4.5118517565E+01  0.0000000000E+00 0. 9.
      21    1    1    2  103  105 -2.4384103201E+01  3.5005508467E+01 -2.4065543557E+02  2.4440746465E+02  0.0000000000E+00 0. 9.
#  0.2010448E+03  0.2010448E+03  0.3948268E+02  0.4330754E+02
# model T2tt_200_0  18.5245 
</event>
<event>
     4     7  1.000000E+00  2.359801E+02  7.957747E-02  1.129625E-01
       2    -1    0    0  101    0  0.0000000000E+00  0.0000000000E+00  4.4395397111E+02  4.4395397111E+02  0.0000000000E+00 0. 9.
      -2   -1    0    0    0  102  0.0000000000E+00  0.0000000000E+00 -1.4069232456E+02  1.4069232456E+02  0.0000000000E+00 0. 9.
 1000006    1    1    2  101    0 -1.1055753448E+01 -1.2475735585E+02  2.4790080315E+02  3.4225931065E+02  2.0000000000E+02 0. 9.
-1000006    1    1    2    0  102  1.1055753448E+01  1.2475735585E+02  5.5360843403E+01  2.4238698502E+02  2.0000000000E+02 0. 9.
#  0.3603383E+03  0.3603383E+03
# model T2tt_200_0  18.5245 
</event>
<event>
     6     4  1.000000E+00  2.178398E+02  7.957747E-02  1.142219E-01
      21    -1    0    0  101  102  0.0000000000E+00  0.0000000000E+00  1.5964007170E+02  1.5964007170E+02  0.0000000000E+00 0. 9.
      21   -1    0    0  103  104  0.0000000000E+00  0.0000000000E+00 -6.2205898103E+02  6.2205898103E+02  0.0000000000E+00 0. 9.
 1000006    1    1    2  101    0  8.2476444552E+01 -2.4599093324E+01 -6.1950886504E+01  2.2637445005E+02  2.0000000000E+02 0. 9.
-1000006    1    1    2    0  104 -7.7031041231E+01 -4.0138206463E+01 -2.7856161732E+02  3.5375334850E+02  2.0000000000E+02 0. 9.
      21    1    1    2  105  102  1.5043954078E+01  3.4915077313E+01  2.8091752717E+01  4.7270812863E+01  0.0000000000E+00 0. 9.
      21    1    1    2  103  105 -2.0489357399E+01  2.9822222474E+01 -1.4999815822E+02  1.5430044132E+02  0.0000000000E+00 0. 9.
#  0.2178398E+03  0.2178398E+03  0.3841673E+02  0.3618257E+02
# model T2tt_200_0  18.5245 
</event>
<event>
     5     6  1.000000E+00  2.040585E+02  7.957747E-02  1.152718E-01
      21    -1    0    0  101  102  0.0000000000E+00  0.0000000000E+00  2.1099208427E+02  2.1099208427E+02  0.0000000000E+00 0. 9.
      21   -1    0    0  103  104  0.0000000000E+00  0.0000000000E+00 -2.4468039879E+02  2.4468039879E+02  0.0000000000E+00 0. 9.
 1000006    1    1    2  101    0  3.0130740428E+01  1.1190856837E+01 -6.9883204181E+00  2.0268678649E+02  2.0000000000E+02 0. 9.
-1000006    1    1    2    0  104 -1.8839770272E+01 -5.1589822566E+01 -3.4687816225E+01  2.1028478626E+02  2.0000000000E+02 0. 9.
      21    1    1    2  103  102 -1.1290970156E+01  4.0398965728E+01  7.9878221250E+00  4.2700910310E+01  0.0000000000E+00 0. 9.
#  0.2040585E+03  0.2040585E+03  0.4194714E+02
# model T2tt_200_0  18.5245 
</event>
<event>
     4     7  1.000000E+00  2.061772E+02  7.957747E-02  1.151046E-01
      21    -1    0    0  101  102  0.0000000000E+00  0.0000000000E+00  5.1555405387E+01  5.1555405387E+01  0.0000000000E+00 0. 9.
      21   -1    0    0  103  101  0.0000000000E+00  0.0000000000E+00 -8.3700654475E+02  8.3700654475E+02  0.0000000000E+00 0. 9.
 1000006    1    1    2  103    0 -4.8926291892E+01 -1.0735409492E+01 -4.4696594407E+02  4.9222716931E+02  2.0000000000E+02 0. 9.
-1000006    1    1    2    0  102  4.8926291892E+01  1.0735409492E+01 -3.3848519529E+02  3.9633478082E+02  2.0000000000E+02 0. 9.
#  0.2061772E+03  0.2061772E+03
# model T2tt_200_0  18.5245 
</event>
<event>
     5     6  1.000000E+00  2.360568E+02  7.957747E-02  1.129575E-01
      21    -1    0    0  101  102  0.0000000000E+00  0.0000000000E+00  1.3679348443E+02  1.3679348443E+02  0.0000000000E+00 0. 9.
       2   -1    0    0  102    0  0.0000000000E+00  0.0000000000E+00 -6.4793088956E+02  6.4793088956E+02  0.0000000000E+00 0. 9.
 1000006    1    1    2  101    0 -1.0090551850E+02  8.6232812373E+01 -1.1723786801E+02  2.6713805287E+02  2.0000000000E+02 0. 9.
-1000006    1    1    2    0  103  1.2857942301E+02 -1.2705215885E+01 -2.0950731519E+02  3.1715517598E+02  2.0000000000E+02 0. 9.
       2    1    1    2  103    0 -2.7673904508E+01 -7.3527596488E+01 -1.8439222193E+02  2.0043114515E+02  0.0000000000E+00 0. 9.
#  0.2360568E+03  0.2360568E+03  0.7856305E+02
# model T2tt_200_0  18.5245 
</event>
<event>
     6     4  1.000000E+00  2.303817E+02  7.957747E-02  1.133376E-01
      21    -1    0    0  101  102  0.0000000000E+00  0.0000000000E+00  1.1318504550E+02  1.1318504550E+02  0.0000000000E+00 0. 9.
      21   -1    0    0  103  104  0.0000000000E+00  0.0000000000E+00 -8.4658116149E+02  8.4658116149E+02  0.0000000000E+00 0. 9.
 1000006    1    1    2  103    0  3.8128538127E+00  1.3585897431E+02 -1.5395065157E+02  2.8665833648E+02  2.0000000000E+02 0. 9.
-1000006    1    1    2    0  102 -1.6910016679E+01 -8.0987111009E+01 -3.6468126881E+02  4.2407226818E+02  2.0000000000E+02 0. 9.
      21    1    1    2  105  104 -2.7251029033E+01 -4.4484505956E+01 -1.9691713932E+02  2.0371020989E+02  0.0000000000E+00 0. 9.
      21    1    1    2  101  105  4.0348191899E+01 -1.0387357347E+01 -1.7847056292E+01  4.5325392447E+01  0.0000000000E+00 0. 9.
#  0.2303817E+03  0.2303817E+03  0.5176844E+02  0.4166382E+02
# model T2tt_200_0  18.5245 
</event>
<event>
     6     4  1.000000E+00  2.442822E+02  7.957747E-02  1.124267E-01
      21    -1    0    0  101  102  0.0000000000E+00  0.0000000000E+00  1.5500685871E+02  1.5500685871E+02  0.0000000000E+00 0. 9.
      21   -1    0    0  103  104  0.0000000000E+00  0.0000000000E+00 -6.5626115050E+02  6.5626115050E+02  0.0000000000E+00 0. 9.
 1000006    1    1    2  105    0 -1.0628572767E+02  1.0824355206E+02 -1.7922711311E+02  3.0844072452E+02  2.0000000000E+02 0. 9.
-1000006    1    1    2    0  102  1.1687448205E+02 -5.9609578768E+01 -1.3162901439E+02  2.7301857787E+02  2.0000000000E+02 0. 9.
      21    1    1    2  103  105 -5.1511511862E+01 -5.8207635215E+01 -1.6018784647E+02  1.7804974252E+02  0.0000000000E+00 0. 9.
      21    1    1    2  101  104  4.0922757488E+01  9.5736619186E+00 -3.0210317816E+01  5.1758964301E+01  0.0000000000E+00 0. 9.
#  0.2442822E+03  0.2442822E+03  0.7561924E+02  0.4202769E+02
# model T2tt_200_0  18.5245 
</event>
<event>
     4     7  1.000000E+00  2.037298E+02  7.957747E-02  1.152979E-01
      21    -1    0    0  101  102  0.0000000000E+00  0.0000000000E+00  7.0316137205E+02  7.0316137205E+02  0.0000000000E+00 0. 9.
      21   -1    0    0  103  101  0.0000000000E+00  0.0000000000E+00 -6.1603000746E+01  6.1603000746E+01  0.0000000000E+00 0. 9.
 1000006    1    1    2  103    0  3.8637328978E+01  3.6017967225E+00  3.9896582838E+02  4.4797270938E+02  2.0000000000E+02 0. 9.
-1000006    1    1    2    0  102 -3.8637328978E+01 -3.6017967225E+00  2.4259254292E+02  3.1679166342E+02  2.0000000000E+02 0. 9.
#  0.2037298E+03  0.2037298E+03
# model T2tt_200_0  18.5245 
</event>
<event>
     6     4  1.000000E+00  2.093794E+02  7.957747E-02  1.148560E-01
       2    -1    0    0  101    0  0.0000000000E+00  0.0000000000E+00  2.5007901023E+03  2.5007901023E+03  0.0000000000E+00 0. 9.
      21   -1    0    0  102  101  0.0000000000E+00  0.0000000000E+00 -1.4544447735E+02  1.4544447735E+02  0.0000000000E+00 0. 9.
 1000006    1    1    2  103    0 -1.6179792024E+01 -2.2901123704E+01  1.3313598032E+03  1.3465902022E+03  2.0000000000E+02 0. 9.
-1000006    1    1    2    0  104  9.1077333206E+01  6.4595877902E+01  6.6781730726E+01  2.3859486085E+02  2.0000000000E+02 0. 9.
      21    1    1    2  102  103 -4.9349582314E+01 -1.9803227228E+01 -3.7949261425E+01  6.5327601563E+01  0.0000000000E+00 0. 9.
       2    1    1    2  104    0 -2.5547958867E+01 -2.1891526969E+01  9.9515335247E+02  9.9572191503E+02  0.0000000000E+00 0. 9.
#  0.2093794E+03  0.2093794E+03  0.5346454E+02  0.3364427E+02
# model T2tt_200_0  18.5245 
</event>
<event>
     4     7  1.000000E+00  2.036686E+02  7.957747E-02  1.153028E-01
      21    -1    0    0  101  102  0.0000000000E+00  0.0000000000E+00  2.7892338964E+02  2.7892338964E+02  0.0000000000E+00 0. 9.
      21   -1    0    0  102  103  0.0000000000E+00  0.0000000000E+00 -1.7636864846E+02  1.7636864846E+02  0.0000000000E+00 0. 9.
 1000006    1    1    2  101    0 -3.6712422710E+01 -1.1536781796E+01 -3.8859578293E+01  2.0734262982E+02  2.0000000000E+02 0. 9.
-1000006    1    1    2    0  103  3.6712422710E+01  1.1536781796E+01  1.4141431947E+02  2.4794940828E+02  2.0000000000E+02 0. 9.
#  0.2036686E+03  0.2036686E+03
# model T2tt_200_0  18.5245 
</event>
<event>
     4     7  1.000000E+00  3.085942E+02  7.957747E-02  1.089343E-01
      -1   -1    0    0    0  101  0.0000000000E+00  0.0000000000E+00  6.2094848098E+02  6.2094848098E+02  0.0000000000E+00 0. 9.
       1   -1    0    0  102    0  0.0000000000E+00  0.0000000000E+00 -1.6658340886E+02  1.6658340886E+02  0.0000000000E+00 0. 9.
 1000006    1    1    2  102    0  2.0439851185E+02 -1.1598102663E+02  3.3811260061E+02  4.5776684117E+02  2.0000000000E+02 0. 9.
-1000006    1    1    2    0  101 -2.0439851185E+02  1.1598102663E+02  1.1625247151E+02  3.2976504866E+02  2.0000000000E+02 0. 9.
#  0.5419953E+03  0.5419953E+03
# model T2tt_200_0  18.5245 
#mrenna fix
</event>
<event>
     5     6  1.000000E+00  2.224106E+02  7.957747E-02  1.138922E-01
      21    -1    0    0  101  102  0.0000000000E+00  0.0000000000E+00  3.6653958294E+01  3.6653958294E+01  0.0000000000E+00 0. 9.
      21   -1    0    0  103  101  0.0000000000E+00  0.0000000000E+00 -1.8571314240E+03  1.8571314240E+03  0.0000000000E+00 0. 9.
 1000006    1    1    2  103    0  1.1674356266E+02  2.4116008683E+01 -6.0187974844E+02  6.4534477055E+02  2.0000000000E+02 0. 9.
-1000006    1    1    2    0  104 -5.6798991379E+01 -3.3606917886E+01 -9.5457938986E+02  9.7753637370E+02  2.0000000000E+02 0. 9.
      21    1    1    2  104  102 -5.9944571285E+01  9.4909092033E+00 -2.6401832737E+02  2.7090423801E+02  0.0000000000E+00 0. 9.
#  0.2224106E+03  0.2224106E+03  0.6069126E+02
# model T2tt_200_0  18.5245 
</event>
<event>
     5     6  1.000000E+00  2.784414E+02  7.957747E-02  1.104437E-01
      21    -1    0    0  101  102  0.0000000000E+00  0.0000000000E+00  1.1175452781E+03  1.1175452781E+03  0.0000000000E+00 0. 9.
      21   -1    0    0  102  103  0.0000000000E+00  0.0000000000E+00 -2.2184187235E+02  2.2184187235E+02  0.0000000000E+00 0. 9.
 1000006    1    1    2  104    0  1.3338338151E+02 -1.1706093750E+02  6.9814419385E+02  7.4759595033E+02  2.0000000000E+02 0. 9.
-1000006    1    1    2    0  103 -1.6455167800E+02  1.0685565330E+02 -9.6185528596E+01  2.9622127082E+02  2.0000000000E+02 0. 9.
      21    1    1    2  101  104  3.1168296493E+01  1.0205284203E+01  2.9374474049E+02  2.9556992929E+02  0.0000000000E+00 0. 9.
#  0.2784414E+03  0.2784414E+03  0.3279650E+02
# model T2tt_200_0  18.5245 
</event>
<event>
     5     6  1.000000E+00  2.159429E+02  7.957747E-02  1.143613E-01
      21    -1    0    0  101  102  0.0000000000E+00  0.0000000000E+00  1.0927532743E+02  1.0927532743E+02  0.0000000000E+00 0. 9.
      21   -1    0    0  103  104  0.0000000000E+00  0.0000000000E+00 -1.6458298816E+03  1.6458298816E+03  0.0000000000E+00 0. 9.
 1000006    1    1    2  101    0 -1.3087531404E+02  2.3368272987E+01 -5.4086445105E+02  5.9178440198E+02  2.0000000000E+02 0. 9.
-1000006    1    1    2    0  104  5.9658671298E+01 -1.0784401274E+01 -1.0514392470E+03  1.0720074396E+03  2.0000000000E+02 0. 9.
      21    1    1    2  103  102  7.1216642741E+01 -1.2583871714E+01  5.5749143901E+01  9.1313367457E+01  0.0000000000E+00 0. 9.
#  0.2159429E+03  0.2159429E+03  0.7231987E+02
# model T2tt_200_0  18.5245 
</event>
<event>
     6     4  1.000000E+00  2.839478E+02  7.957747E-02  1.101530E-01
      21    -1    0    0  101  102  0.0000000000E+00  0.0000000000E+00  1.3308279061E+02  1.3308279061E+02  0.0000000000E+00 0. 9.
       2   -1    0    0  102    0  0.0000000000E+00  0.0000000000E+00 -1.7968039487E+03  1.7968039487E+03  0.0000000000E+00 0. 9.
 1000006    1    1    2  101    0  3.5177259781E+01 -4.2170726841E+01 -4.0452810460E+01  2.1131076566E+02  2.0000000000E+02 0. 9.
-1000006    1    1    2    0  103 -1.0935049087E+02  2.1619339503E+02 -6.4032957844E+02  7.1324545770E+02  2.0000000000E+02 0. 9.
      21    1    1    2  103  104  7.7210166704E+01 -6.2640419202E+01 -4.8255042883E+02  4.9268666343E+02  0.0000000000E+00 0. 9.
       2    1    1    2  104    0 -3.0369356138E+00 -1.1138224899E+02 -5.0038834040E+02  5.1264385256E+02  0.0000000000E+00 0. 9.
#  0.2074025E+03  0.2839478E+03  0.8828686E+02  0.2221748E+03
# model T2tt_200_0  18.5245 
</event>
<event>
     5     6  1.000000E+00  2.314562E+02  7.957747E-02  1.132647E-01
      21    -1    0    0  101  102  0.0000000000E+00  0.0000000000E+00  2.6021916888E+02  2.6021916888E+02  0.0000000000E+00 0. 9.
       1   -1    0    0  103    0  0.0000000000E+00  0.0000000000E+00 -1.7093158347E+03  1.7093158347E+03  0.0000000000E+00 0. 9.
 1000006    1    1    2  103    0  7.1337885287E+01 -1.3681747460E+02 -1.2558810158E+02  2.8210013557E+02  2.0000000000E+02 0. 9.
-1000006    1    1    2    0  102  1.8672443450E+01  1.0913949062E+02  1.0800007377E+02  2.5283216665E+02  2.0000000000E+02 0. 9.
       1    1    1    2  101    0 -9.0010328738E+01  2.7677983977E+01 -1.4315086380E+03  1.4346027014E+03  0.0000000000E+00 0. 9.
#  0.2314562E+03  0.2314562E+03  0.9416969E+02
# model T2tt_200_0  18.5245 
</event>
<event>
     5     6  1.000000E+00  2.266319E+02  7.957747E-02  1.135954E-01
      21    -1    0    0  101  102  0.0000000000E+00  0.0000000000E+00  1.1537676445E+03  1.1537676445E+03  0.0000000000E+00 0. 9.
      21   -1    0    0  103  104  0.0000000000E+00  0.0000000000E+00 -5.2634027490E+01  5.2634027490E+01  0.0000000000E+00 0. 9.
 1000006    1    1    2  101    0  9.7473266308E+01 -2.3828323857E+01  4.2580245300E+02  4.8101616984E+02  2.0000000000E+02 0. 9.
-1000006    1    1    2    0  104 -1.1644563811E+02 -6.0346889633E-01  5.5903010546E+02  6.0504099830E+02  2.0000000000E+02 0. 9.
      21    1    1    2  103  102  1.8972371798E+01  2.4431792753E+01  1.1630105855E+02  1.2034450386E+02  0.0000000000E+00 0. 9.
#  0.2266319E+03  0.2266319E+03  0.3093321E+02
# model T2tt_200_0  18.5245 
</event>
<event>
     4     7  1.000000E+00  2.561152E+02  7.957747E-02  1.117019E-01
      21    -1    0    0  101  102  0.0000000000E+00  0.0000000000E+00  2.1656391640E+02  2.1656391640E+02  0.0000000000E+00 0. 9.
      21   -1    0    0  103  101  0.0000000000E+00  0.0000000000E+00 -3.0520784789E+02  3.0520784789E+02  0.0000000000E+00 0. 9.
 1000006    1    1    2  103    0 -2.0456728082E+00  1.5997123500E+02 -6.7058423687E+01  2.6474858449E+02  2.0000000000E+02 0. 9.
-1000006    1    1    2    0  102  2.0456728082E+00 -1.5997123500E+02 -2.1585507812E+01  2.5702317980E+02  2.0000000000E+02 0. 9.
#  0.2561152E+03  0.2561152E+03
# model T2tt_200_0  18.5245 
</event>
<event>
     5     6  1.000000E+00  4.049256E+02  7.957747E-02  1.051377E-01
      21    -1    0    0  101  102  0.0000000000E+00  0.0000000000E+00  3.6131344680E+02  3.6131344680E+02  0.0000000000E+00 0. 9.
       1   -1    0    0  103    0  0.0000000000E+00  0.0000000000E+00 -1.5206006035E+03  1.5206006035E+03  0.0000000000E+00 0. 9.
 1000006    1    1    2  103    0  7.1954059320E+01 -2.2797284325E+02 -1.0268425933E+02  3.2816620945E+02  2.0000000000E+02 0. 9.
-1000006    1    1    2    0  102 -2.4446752637E+01 -1.5183630480E+02  1.4614243134E+02  2.9156391650E+02  2.0000000000E+02 0. 9.
       1    1    1    2  101    0 -4.7507306683E+01  3.7980914805E+02 -1.2027453287E+03  1.2621839243E+03  0.0000000000E+00 0. 9.
#  0.4049256E+03  0.2522933E+03  0.3520862E+03
# model T2tt_200_0  18.5245 
</event>
<event>
     6     4  1.000000E+00  6.375799E+02  7.957747E-02  9.935148E-02
       2    -1    0    0  101    0  0.0000000000E+00  0.0000000000E+00  1.4011143246E+03  1.4011143246E+03  0.0000000000E+00 0. 9.
      21   -1    0    0  102  103  0.0000000000E+00  0.0000000000E+00 -5.2844234474E+02  5.2844234474E+02  0.0000000000E+00 0. 9.
 1000006    1    1    2  104    0 -1.0532116625E+02  1.7191078629E+02  7.8672813900E+01  2.9467826209E+02  2.0000000000E+02 0. 9.
-1000006    1    1    2    0  103 -5.5036445546E+02 -8.0281189310E+01  5.3726027135E+02  7.9874570569E+02  2.0000000000E+02 0. 9.
      21    1    1    2  101  104 -3.4035422745E+01  9.0995510790E-01  1.2283411653E+02  1.2746551770E+02  0.0000000000E+00 0. 9.
       2    1    1    2  102    0  6.8972104445E+02 -9.2539552085E+01  1.3390477806E+02  7.0866718384E+02  0.0000000000E+00 0. 9.
#  0.2859464E+03  0.6375799E+03  0.3404758E+02  0.6053994E+03
# model T2tt_200_0  18.5245 
</event>
<event>
     4     7  1.000000E+00  2.176218E+02  7.957747E-02  1.142378E-01
      21    -1    0    0  101  102  0.0000000000E+00  0.0000000000E+00  1.9871399757E+02  1.9871399757E+02  0.0000000000E+00 0. 9.
      21   -1    0    0  102  103  0.0000000000E+00  0.0000000000E+00 -2.3910242253E+02  2.3910242253E+02  0.0000000000E+00 0. 9.
 1000006    1    1    2  101    0  3.2048934525E+01  7.9574498622E+01 -7.7409827877E+00  2.1775940358E+02  2.0000000000E+02 0. 9.
-1000006    1    1    2    0  103 -3.2048934525E+01 -7.9574498622E+01 -3.2647442172E+01  2.2005701651E+02  2.0000000000E+02 0. 9.
#  0.2176218E+03  0.2176218E+03
# model T2tt_200_0  18.5245 
</event>
<event>
     5     6  1.000000E+00  2.674501E+02  7.957747E-02  1.110464E-01
      21    -1    0    0  101  102  0.0000000000E+00  0.0000000000E+00  1.8645194160E+02  1.8645194160E+02  0.0000000000E+00 0. 9.
      21   -1    0    0  103  104  0.0000000000E+00  0.0000000000E+00 -5.4691611618E+02  5.4691611618E+02  0.0000000000E+00 0. 9.
 1000006    1    1    2  103    0 -1.0136097289E+02 -1.5392029967E+02 -2.4340848395E+02  3.6498382915E+02  2.0000000000E+02 0. 9.
-1000006    1    1    2    0  102  6.5895609404E+01  1.5795560439E+02 -1.6344704577E+02  3.0985019133E+02  2.0000000000E+02 0. 9.
      21    1    1    2  101  104  3.5465363490E+01 -4.0353047155E+00  4.6391355144E+01  5.8534037309E+01  0.0000000000E+00 0. 9.
#  0.2674501E+03  0.2674501E+03  0.3569420E+02
# model T2tt_200_0  18.5245 
</event>
<event>
     6     4  1.000000E+00  2.268056E+02  7.957747E-02  1.135834E-01
      21    -1    0    0  101  102  0.0000000000E+00  0.0000000000E+00  3.9505357849E+02  3.9505357849E+02  0.0000000000E+00 0. 9.
      21   -1    0    0  103  104  0.0000000000E+00  0.0000000000E+00 -3.1386411969E+02  3.1386411969E+02  0.0000000000E+00 0. 9.
 1000006    1    1    2  105    0  1.0870672712E+02  5.9319493650E+01  1.1306518051E+02  2.6099749020E+02  2.0000000000E+02 0. 9.
-1000006    1    1    2    0  104 -6.3181919336E+01 -7.1909531517E+01  8.1508922319E+01  2.3623429063E+02  2.0000000000E+02 0. 9.
      21    1    1    2  103  102 -2.7765694567E+01  3.7379324911E+01 -1.5400660712E+02  1.6089183560E+02  0.0000000000E+00 0. 9.
      21    1    1    2  101  105 -1.7759113217E+01 -2.4789287044E+01  4.0621963099E+01  5.0794081746E+01  0.0000000000E+00 0. 9.
#  0.2268056E+03  0.2268056E+03  0.4647251E+02  0.3049418E+02
# model T2tt_200_0  18.5245 
</event>
<event>
     4     7  1.000000E+00  2.054888E+02  7.957747E-02  1.151587E-01
      21    -1    0    0  101  102  0.0000000000E+00  0.0000000000E+00  4.7595582787E+02  4.7595582787E+02  0.0000000000E+00 0. 9.
      21   -1    0    0  102  103  0.0000000000E+00  0.0000000000E+00 -1.0037294435E+02  1.0037294435E+02  0.0000000000E+00 0. 9.
 1000006    1    1    2  101    0 -4.6800299224E+01 -5.9487547802E+00  2.8598763420E+02  3.5215704254E+02  2.0000000000E+02 0. 9.
-1000006    1    1    2    0  103  4.6800299224E+01  5.9487547802E+00  8.9595249317E+01  2.2417172969E+02  2.0000000000E+02 0. 9.
#  0.2054888E+03  0.2054888E+03
# model T2tt_200_0  18.5245 
</event>
<event>
     4     7  1.000000E+00  5.890727E+02  7.957747E-02  1.003138E-01
      21    -1    0    0  101  102  0.0000000000E+00  0.0000000000E+00  2.8834555870E+02  2.8834555870E+02  0.0000000000E+00 0. 9.
      21   -1    0    0  102  103  0.0000000000E+00  0.0000000000E+00 -1.8746556723E+03  1.8746556723E+03  0.0000000000E+00 0. 9.
 1000006    1    1    2  101    0 -3.0749346859E+01 -5.5322788760E+02 -1.4601688683E+02  6.0689994990E+02  2.0000000000E+02 0. 9.
-1000006    1    1    2    0  103  3.0749346859E+01  5.5322788760E+02 -1.4402932268E+03  1.5561012811E+03  2.0000000000E+02 0. 9.
#  0.5890727E+03  0.5890727E+03
# model T2tt_200_0  18.5245 
</event>
<event>
     4     7  1.000000E+00  2.915180E+02  7.957747E-02  1.097649E-01
      21    -1    0    0  101  102  0.0000000000E+00  0.0000000000E+00  1.3038705582E+02  1.3038705582E+02  0.0000000000E+00 0. 9.
      21   -1    0    0  103  101  0.0000000000E+00  0.0000000000E+00 -6.5748470659E+02  6.5748470659E+02  0.0000000000E+00 0. 9.
 1000006    1    1    2  103    0  2.1169117492E+02 -1.3022307349E+01 -2.2683125227E+02  3.6937129157E+02  2.0000000000E+02 0. 9.
-1000006    1    1    2    0  102 -2.1169117492E+02  1.3022307349E+01 -3.0026639850E+02  4.1850047084E+02  2.0000000000E+02 0. 9.
#  0.2915180E+03  0.2915180E+03
# model T2tt_200_0  18.5245 
</event>
<event>
     6     4  1.000000E+00  2.074255E+02  7.957747E-02  1.150071E-01
      -2    -1    0    0    0  101  0.0000000000E+00  0.0000000000E+00  5.5145079608E+01  5.5145079608E+01  0.0000000000E+00 0. 9.
       2   -1    0    0  102    0  0.0000000000E+00  0.0000000000E+00 -1.5385438957E+03  1.5385438957E+03  0.0000000000E+00 0. 9.
 1000006    1    1    2  102    0 -5.4020332008E+01  5.6929665653E+01 -4.9938208430E+02  5.4363742441E+02  2.0000000000E+02 0. 9.
-1000006    1    1    2    0  103 -3.2006860445E+01 -5.2836731324E+01 -3.9014184113E+02  4.4274915640E+02  2.0000000000E+02 0. 9.
       4    1    1    2  103    0  4.3397384192E+01 -2.3866848366E+01 -4.9875060482E+02  5.0120367638E+02  0.0000000000E+00 0. 9.
      -4    1    1    2    0  101  4.2629808260E+01  1.9773914037E+01 -9.5124285808E+01  1.0609871808E+02  0.0000000000E+00 0. 9.
#  0.2329984E+03  0.2329984E+03  0.1269993E+03  0.1269993E+03
# model T2tt_200_0  18.5245 
</event>
<event>
     6     4  1.000000E+00  3.926516E+02  7.957747E-02  1.055545E-01
      21    -1    0    0  101  102  0.0000000000E+00  0.0000000000E+00  7.3317466186E+02  7.3317466186E+02  0.0000000000E+00 0. 9.
      21   -1    0    0  103  104  0.0000000000E+00  0.0000000000E+00 -4.6457568633E+02  4.6457568633E+02  0.0000000000E+00 0. 9.
 1000006    1    1    2  105    0  3.4616061093E+02 -8.6229842798E+01  8.7663644698E+01  4.1826746102E+02  2.0000000000E+02 0. 9.
-1000006    1    1    2    0  104 -1.6426746577E+02 -1.2446047707E+02 -5.4005359161E+01  2.9221702463E+02  2.0000000000E+02 0. 9.
      21    1    1    2  101  105  8.3379342743E+01  3.4488526055E-02  1.8895289902E+01  8.5493555115E+01  0.0000000000E+00 0. 9.
      21    1    1    2  103  102 -2.6527248789E+02  2.1065583134E+02  2.1604540010E+02  4.0177230743E+02  0.0000000000E+00 0. 9.
#  0.3926516E+03  0.2694355E+03  0.8337935E+02  0.3378983E+03
# model T2tt_200_0  18.5245 
</event>
<event>
     4     7  1.000000E+00  2.389919E+02  7.957747E-02  1.127654E-01
      -2    -1    0    0    0  101  0.0000000000E+00  0.0000000000E+00  1.5836132788E+02  1.5836132788E+02  0.0000000000E+00 0. 9.
       2   -1    0    0  102    0  0.0000000000E+00  0.0000000000E+00 -4.0988429539E+02  4.0988429539E+02  0.0000000000E+00 0. 9.
 1000006    1    1    2  102    0 -1.2723938554E+02 -3.0451104980E+01 -2.7316270433E+01  2.4054793630E+02  2.0000000000E+02 0. 9.
-1000006    1    1    2    0  101  1.2723938554E+02  3.0451104980E+01 -2.2420669708E+02  3.2769768696E+02  2.0000000000E+02 0. 9.
#  0.3736834E+03  0.3736834E+03
# model T2tt_200_0  18.5245 
</event>
<event>
     5     6  1.000000E+00  2.091814E+02  7.957747E-02  1.148712E-01
      21    -1    0    0  101  102  0.0000000000E+00  0.0000000000E+00  2.9640910955E+02  2.9640910955E+02  0.0000000000E+00 0. 9.
       2   -1    0    0  102    0  0.0000000000E+00  0.0000000000E+00 -8.1726741429E+02  8.1726741429E+02  0.0000000000E+00 0. 9.
 1000006    1    1    2  101    0  6.2843122411E+00 -9.3672031233E+01  1.7225469392E+02  2.8015285398E+02  2.0000000000E+02 0. 9.
-1000006    1    1    2    0  103  5.3244462304E+01 -1.0101767976E+02 -2.2012753481E+02  3.1858386019E+02  2.0000000000E+02 0. 9.
       2    1    1    2  103    0 -5.9528774545E+01  1.9468971100E+02 -4.7298546385E+02  5.1493980967E+02  0.0000000000E+00 0. 9.
#  0.2091814E+03  0.2091814E+03  0.2035872E+03
# model T2tt_200_0  18.5245 
</event>
<event>
     5     6  1.000000E+00  2.201730E+02  7.957747E-02  1.140525E-01
      21    -1    0    0  101  102  0.0000000000E+00  0.0000000000E+00  2.6652844689E+02  2.6652844689E+02  0.0000000000E+00 0. 9.
      21   -1    0    0  103  104  0.0000000000E+00  0.0000000000E+00 -2.6477881076E+02  2.6477881076E+02  0.0000000000E+00 0. 9.
 1000006    1    1    2  101    0 -6.7330066823E+01 -7.1329637486E+00  1.5689423074E+01  2.1173184708E+02  2.0000000000E+02 0. 9.
-1000006    1    1    2    0  104  1.0264874027E+02  6.6982279713E+01  3.1306103074E+01  2.3665050552E+02  2.0000000000E+02 0. 9.
      21    1    1    2  103  102 -3.5318673443E+01 -5.9849315964E+01 -4.5245890010E+01  8.2924905052E+01  0.0000000000E+00 0. 9.
#  0.2201730E+03  0.2201730E+03  0.6949352E+02
# model T2tt_200_0  18.5245 
</event>
<event>
     4     7  1.000000E+00  2.020158E+02  7.957747E-02  1.154352E-01
      21    -1    0    0  101  102  0.0000000000E+00  0.0000000000E+00  4.9503878952E+02  4.9503878952E+02  0.0000000000E+00 0. 9.
      21   -1    0    0  103  101  0.0000000000E+00  0.0000000000E+00 -1.2633242929E+02  1.2633242929E+02  0.0000000000E+00 0. 9.
 1000006    1    1    2  103    0  2.7663047748E+01  6.7176945682E+00  1.2209513935E+00  2.0201946033E+02  2.0000000000E+02 0. 9.
-1000006    1    1    2    0  102 -2.7663047748E+01 -6.7176945682E+00  3.6748540883E+02  4.1935175848E+02  2.0000000000E+02 0. 9.
#  0.2020158E+03  0.2020158E+03
# model T2tt_200_0  18.5245 
</event>
<event>
     5     6  1.000000E+00  2.635148E+02  7.957747E-02  1.112699E-01
       2    -1    0    0  101    0  0.0000000000E+00  0.0000000000E+00  1.4021530181E+03  1.4021530181E+03  0.0000000000E+00 0. 9.
      21   -1    0    0  102  103  0.0000000000E+00  0.0000000000E+00 -2.4246146720E+02  2.4246146720E+02  0.0000000000E+00 0. 9.
 1000006    1    1    2  101    0  1.2813134219E+02 -1.0846349909E+02  9.9676288383E+01  2.7949478341E+02  2.0000000000E+02 0. 9.
-1000006    1    1    2    0  103 -1.0943002403E+02  1.3663297225E+02 -3.6324077926E+01  2.6825908727E+02  2.0000000000E+02 0. 9.
       2    1    1    2  102    0 -1.8701318155E+01 -2.8169473163E+01  1.0963393405E+03  1.0968606146E+03  0.0000000000E+00 0. 9.
#  0.2635148E+03  0.2635148E+03  0.3381211E+02
# model T2tt_200_0  18.5245 
</event>
<event>
     5     6  1.000000E+00  2.321724E+02  7.957747E-02  1.132164E-01
      21    -1    0    0  101  102  0.0000000000E+00  0.0000000000E+00  9.7364742599E+02  9.7364742599E+02  0.0000000000E+00 0. 9.
      21   -1    0    0  103  104  0.0000000000E+00  0.0000000000E+00 -1.5242589944E+02  1.5242589944E+02  0.0000000000E+00 0. 9.
 1000006    1    1    2  103    0  8.8738634403E-01  1.0091044437E+02  5.3840228302E+02  5.8314725722E+02  2.0000000000E+02 0. 9.
-1000006    1    1    2    0  102  4.3868628504E+01 -1.4487534582E+02  3.6293130176E+02  4.4117168108E+02  2.0000000000E+02 0. 9.
      21    1    1    2  101  104 -4.4756014848E+01  4.3964901442E+01 -8.0112058239E+01  1.0175438713E+02  0.0000000000E+00 0. 9.
#  0.2321724E+03  0.2321724E+03  0.6273766E+02
# model T2tt_200_0  18.5245 
</event>
<event>
     6     4  1.000000E+00  2.187562E+02  7.957747E-02  1.141551E-01
      21    -1    0    0  101  102  0.0000000000E+00  0.0000000000E+00  1.6772320983E+02  1.6772320983E+02  0.0000000000E+00 0. 9.
       3   -1    0    0  103    0  0.0000000000E+00  0.0000000000E+00 -6.5935791892E+02  6.5935791892E+02  0.0000000000E+00 0. 9.
 1000006    1    1    2  103    0  8.9605573911E+01  5.9505673708E+01  3.8962557604E+00  2.2712389766E+02  2.0000000000E+02 0. 9.
-1000006    1    1    2    0  104 -1.0029594263E+02 -3.3010200187E+01 -3.6943414873E+02  4.3316340989E+02  2.0000000000E+02 0. 9.
      21    1    1    2  104  102 -2.1707890878E+01 -2.7279069333E+01  1.7473059143E+00  3.4906062912E+01  0.0000000000E+00 0. 9.
       3    1    1    2  101    0  3.2398259601E+01  7.8359581215E-01 -1.2784412204E+02  1.3188775829E+02  0.0000000000E+00 0. 9.
#  0.2187562E+03  0.2187562E+03  0.3422029E+02  0.3240773E+02
# model T2tt_200_0  18.5245 
</event>
<event>
     4     7  1.000000E+00  2.413823E+02  7.957747E-02  1.126112E-01
      21    -1    0    0  101  102  0.0000000000E+00  0.0000000000E+00  1.1405412410E+02  1.1405412410E+02  0.0000000000E+00 0. 9.
      21   -1    0    0  103  101  0.0000000000E+00  0.0000000000E+00 -5.1380930190E+02  5.1380930190E+02  0.0000000000E+00 0. 9.
 1000006    1    1    2  103    0 -1.0859679192E+02  8.0449720258E+01 -2.2367159080E+02  3.2908114689E+02  2.0000000000E+02 0. 9.
-1000006    1    1    2    0  102  1.0859679192E+02 -8.0449720258E+01 -1.7608358700E+02  2.9878227912E+02  2.0000000000E+02 0. 9.
#  0.2413823E+03  0.2413823E+03
# model T2tt_200_0  18.5245 
</event>
<event>
     5     6  1.000000E+00  2.829874E+02  7.957747E-02  1.102032E-01
      21    -1    0    0  101  102  0.0000000000E+00  0.0000000000E+00  7.1204123837E+02  7.1204123837E+02  0.0000000000E+00 0. 9.
      21   -1    0    0  102  103  0.0000000000E+00  0.0000000000E+00 -1.8873960147E+02  1.8873960147E+02  0.0000000000E+00 0. 9.
 1000006    1    1    2  104    0  8.1641856958E+01  2.0719623699E+02  1.2574381358E+02  3.2466471950E+02  2.0000000000E+02 0. 9.
-1000006    1    1    2    0  103 -9.2557352819E+01 -1.5504862823E+02  1.2258684855E+02  2.9603120801E+02  2.0000000000E+02 0. 9.
      21    1    1    2  101  104  1.0915495861E+01 -5.2147608758E+01  2.7497097477E+02  2.8008491233E+02  0.0000000000E+00 0. 9.
#  0.2829874E+03  0.2829874E+03  0.5327777E+02
# model T2tt_200_0  18.5245 
</event>
<event>
     4     7  1.000000E+00  2.569714E+02  7.957747E-02  1.116511E-01
      -2    -1    0    0    0  101  0.0000000000E+00  0.0000000000E+00  3.2069005448E+01  3.2069005448E+01  0.0000000000E+00 0. 9.
       2   -1    0    0  102    0  0.0000000000E+00  0.0000000000E+00 -2.0927093552E+03  2.0927093552E+03  0.0000000000E+00 0. 9.
 1000006    1    1    2  102    0  5.6867296464E+01  1.5099801584E+02 -1.1648930378E+03  1.1928998616E+03  2.0000000000E+02 0. 9.
-1000006    1    1    2    0  101 -5.6867296464E+01 -1.5099801584E+02 -8.9574731196E+02  9.3187849909E+02  2.0000000000E+02 0. 9.
#  0.3852849E+03  0.3852849E+03
# model T2tt_200_0  18.5245 
</event>
<event>
     4     7  1.000000E+00  2.000986E+02  7.957747E-02  1.155904E-01
      21    -1    0    0  101  102  0.0000000000E+00  0.0000000000E+00  3.9163799996E+02  3.9163799996E+02  0.0000000000E+00 0. 9.
      21   -1    0    0  102  103  0.0000000000E+00  0.0000000000E+00 -1.0796710214E+02  1.0796710214E+02  0.0000000000E+00 0. 9.
 1000006    1    1    2  101    0  3.4225648180E+00  5.2651565996E+00  8.4281294513E+01  2.1712386425E+02  2.0000000000E+02 0. 9.
-1000006    1    1    2    0  103 -3.4225648180E+00 -5.2651565996E+00  1.9938960331E+02  2.8248123784E+02  2.0000000000E+02 0. 9.
#  0.2000986E+03  0.2000986E+03
# model T2tt_200_0  18.5245 
</event>
<event>
     4     7  1.000000E+00  3.219033E+02  7.957747E-02  1.083263E-01
      21    -1    0    0  101  102  0.0000000000E+00  0.0000000000E+00  8.0619279437E+01  8.0619279437E+01  0.0000000000E+00 0. 9.
      21   -1    0    0  103  101  0.0000000000E+00  0.0000000000E+00 -1.2872026300E+03  1.2872026300E+03  0.0000000000E+00 0. 9.
 1000006    1    1    2  103    0  1.5906777447E+02 -1.9575280567E+02 -6.2943436288E+02  7.0697194780E+02  2.0000000000E+02 0. 9.
-1000006    1    1    2    0  102 -1.5906777447E+02  1.9575280567E+02 -5.7714898763E+02  6.6084996159E+02  2.0000000000E+02 0. 9.
#  0.3219033E+03  0.3219033E+03
# model T2tt_200_0  18.5245 
</event>
<event>
     5     6  1.000000E+00  2.057916E+02  7.957747E-02  1.151348E-01
      21    -1    0    0  101  102  0.0000000000E+00  0.0000000000E+00  1.4052563906E+02  1.4052563906E+02  0.0000000000E+00 0. 9.
      21   -1    0    0  103  104  0.0000000000E+00  0.0000000000E+00 -5.4810367794E+02  5.4810367794E+02  0.0000000000E+00 0. 9.
 1000006    1    1    2  101    0  7.1962434256E+01  5.3040787933E+00 -1.3638841529E+02  2.5260349368E+02  2.0000000000E+02 0. 9.
-1000006    1    1    2    0  104  7.0743767684E+00 -6.6988009666E+01 -9.1001356942E+01  2.2982316509E+02  2.0000000000E+02 0. 9.
      21    1    1    2  103  102 -7.9036811024E+01  6.1683930872E+01 -1.8018826664E+02  2.0620265823E+02  0.0000000000E+00 0. 9.
#  0.2057916E+03  0.2057916E+03  0.1002583E+03
# model T2tt_200_0  18.5245 
</event>
<event>
     4     7  1.000000E+00  2.505868E+02  7.957747E-02  1.120351E-01
      21    -1    0    0  101  102  0.0000000000E+00  0.0000000000E+00  3.5215800225E+02  3.5215800225E+02  0.0000000000E+00 0. 9.
      21   -1    0    0  102  103  0.0000000000E+00  0.0000000000E+00 -1.9172731968E+02  1.9172731968E+02  0.0000000000E+00 0. 9.
 1000006    1    1    2  101    0 -9.0402120848E+01  1.2091814060E+02  1.5215157423E+02  2.9316180127E+02  2.0000000000E+02 0. 9.
-1000006    1    1    2    0  103  9.0402120848E+01 -1.2091814060E+02  8.2791083362E+00  2.5072352067E+02  2.0000000000E+02 0. 9.
#  0.2505868E+03  0.2505868E+03
# model T2tt_200_0  18.5245 
</event>
<event>
     5     6  1.000000E+00  2.134246E+02  7.957747E-02  1.145488E-01
      21    -1    0    0  101  102  0.0000000000E+00  0.0000000000E+00  9.4853819844E+01  9.4853819844E+01  0.0000000000E+00 0. 9.
       2   -1    0    0  103    0  0.0000000000E+00  0.0000000000E+00 -1.8887900182E+03  1.8887900182E+03  0.0000000000E+00 0. 9.
 1000006    1    1    2  103    0 -3.4196784282E+01  5.8379212178E+01 -2.9691768247E+02  3.6433180294E+02  2.0000000000E+02 0. 9.
-1000006    1    1    2    0  102  7.5644431626E+01 -3.5079023947E+01 -1.3254316135E+02  2.5400847934E+02  2.0000000000E+02 0. 9.
       2    1    1    2  101    0 -4.1447647344E+01 -2.3300188231E+01 -1.3644753546E+03  1.3653035558E+03  0.0000000000E+00 0. 9.
#  0.2134246E+03  0.2134246E+03  0.4754794E+02
# model T2tt_200_0  18.5245 
</event>
<event>
     6     4  1.000000E+00  2.399605E+02  7.957747E-02  1.127027E-01
       2    -1    0    0  101    0  0.0000000000E+00  0.0000000000E+00  7.8776887561E+02  7.8776887561E+02  0.0000000000E+00 0. 9.
      21   -1    0    0  102  103  0.0000000000E+00  0.0000000000E+00 -3.1756856856E+02  3.1756856856E+02  0.0000000000E+00 0. 9.
 1000006    1    1    2  101    0 -1.2923377619E+02  5.9866201205E+01 -8.1021858002E+00  2.4566435714E+02  2.0000000000E+02 0. 9.
-1000006    1    1    2    0  103  9.4887889112E+01 -4.6753509927E+01  1.2379096096E+02  2.5790270298E+02  2.0000000000E+02 0. 9.
      21    1    1    2  102  104  9.2606926854E+00  6.5721028682E+01 -1.1080236300E+02  1.2915950482E+02  0.0000000000E+00 0. 9.
       2    1    1    2  104    0  2.5085194394E+01 -7.8833719960E+01  4.6531389489E+02  4.7261087922E+02  0.0000000000E+00 0. 9.
#  0.2399605E+03  0.2399605E+03  0.6637028E+02  0.8162577E+02
# model T2tt_200_0  18.5245 
</event>
<event>
     4     7  1.000000E+00  2.514285E+02  7.957747E-02  1.119838E-01
      -2    -1    0    0    0  101  0.0000000000E+00  0.0000000000E+00  9.4528175429E+01  9.4528175429E+01  0.0000000000E+00 0. 9.
       2   -1    0    0  102    0  0.0000000000E+00  0.0000000000E+00 -1.0331921652E+03  1.0331921652E+03  0.0000000000E+00 0. 9.
 1000006    1    1    2  102    0 -1.4818919043E+02  3.5443840349E+01 -1.3445023766E+02  2.8511956858E+02  2.0000000000E+02 0. 9.
-1000006    1    1    2    0  101  1.4818919043E+02 -3.5443840349E+01 -8.0421375214E+02  8.4260077208E+02  2.0000000000E+02 0. 9.
#  0.5202529E+03  0.5202529E+03
# model T2tt_200_0  18.5245 
</event>
<event>
     5     6  1.000000E+00  2.074853E+02  7.957747E-02  1.150024E-01
       2    -1    0    0  101    0  0.0000000000E+00  0.0000000000E+00  4.4584883894E+02  4.4584883894E+02  0.0000000000E+00 0. 9.
      21   -1    0    0  102  101  0.0000000000E+00  0.0000000000E+00 -1.6196349769E+02  1.6196349769E+02  0.0000000000E+00 0. 9.
 1000006    1    1    2  102    0 -7.4874328887E+01 -4.3024082724E+01  3.5404120212E+01  2.2070498080E+02  2.0000000000E+02 0. 9.
-1000006    1    1    2    0  103 -3.9869459380E+00  2.6980293057E+01  1.1802111878E+02  2.3382218977E+02  2.0000000000E+02 0. 9.
       2    1    1    2  103    0  7.8861274825E+01  1.6043789667E+01  1.3046010226E+02  1.5328516607E+02  0.0000000000E+00 0. 9.
#  0.2074853E+03  0.2074853E+03  0.8047673E+02
# model T2tt_200_0  18.5245 
</event>
<event>
     5     6  1.000000E+00  2.472530E+02  7.957747E-02  1.122406E-01
      21    -1    0    0  101  102  0.0000000000E+00  0.0000000000E+00  1.8661332553E+02  1.8661332553E+02  0.0000000000E+00 0. 9.
      21   -1    0    0  103  104  0.0000000000E+00  0.0000000000E+00 -4.5920846368E+02  4.5920846368E+02  0.0000000000E+00 0. 9.
 1000006    1    1    2  101    0 -9.4557049151E+01  7.3647180650E+01 -1.5311108760E+02  2.7894076057E+02  2.0000000000E+02 0. 9.
-1000006    1    1    2    0  104  1.5071696263E+02 -9.5880124408E+01 -1.4074286793E+02  3.0284840424E+02  2.0000000000E+02 0. 9.
      21    1    1    2  103  102 -5.6159913477E+01  2.2232943758E+01  2.1258817377E+01  6.4032624389E+01  0.0000000000E+00 0. 9.
#  0.2472530E+03  0.2472530E+03  0.6040066E+02
# model T2tt_200_0  18.5245 
</event>
<event>
     4     7  1.000000E+00  2.329887E+02  7.957747E-02  1.131615E-01
      21    -1    0    0  101  102  0.0000000000E+00  0.0000000000E+00  2.0071785268E+02  2.0071785268E+02  0.0000000000E+00 0. 9.
      21   -1    0    0  103  101  0.0000000000E+00  0.0000000000E+00 -2.9659430140E+02  2.9659430140E+02  0.0000000000E+00 0. 9.
 1000006    1    1    2  103    0 -1.0536775592E+02  5.6403546821E+01 -1.2176663889E+02  2.6288940341E+02  2.0000000000E+02 0. 9.
-1000006    1    1    2    0  102  1.0536775592E+02 -5.6403546821E+01  2.5890190170E+01  2.3442275066E+02  2.0000000000E+02 0. 9.
#  0.2329887E+03  0.2329887E+03
# model T2tt_200_0  18.5245 
</event>
<event>
     4     7  1.000000E+00  2.426383E+02  7.957747E-02  1.125310E-01
      21    -1    0    0  101  102  0.0000000000E+00  0.0000000000E+00  9.7962981494E+01  9.7962981494E+01  0.0000000000E+00 0. 9.
      21   -1    0    0  103  101  0.0000000000E+00  0.0000000000E+00 -6.0549306844E+02  6.0549306844E+02  0.0000000000E+00 0. 9.
 1000006    1    1    2  103    0  1.2779286636E+02 -5.0421475749E+01 -2.2338351620E+02  3.2980833406E+02  2.0000000000E+02 0. 9.
-1000006    1    1    2    0  102 -1.2779286636E+02  5.0421475749E+01 -2.8414657075E+02  3.7364771587E+02  2.0000000000E+02 0. 9.
#  0.2426383E+03  0.2426383E+03
# model T2tt_200_0  18.5245 
</event>
<event>
     5     6  1.000000E+00  2.007252E+02  7.957747E-02  1.155395E-01
      21    -1    0    0  101  102  0.0000000000E+00  0.0000000000E+00  1.0464850801E+03  1.0464850801E+03  0.0000000000E+00 0. 9.
       5   -1    0    0  103    0  0.0000000000E+00  0.0000000000E+00 -6.6198035152E+01  6.6198035152E+01  0.0000000000E+00 0. 9.
 1000006    1    1    2  103    0  3.3017808551E+01 -2.4601357265E+00  1.8954074287E+02  2.7752823488E+02  2.0000000000E+02 0. 9.
-1000006    1    1    2    0  102  2.8201518748E+01 -1.8017842909E+01  6.3125221020E+02  6.6302286627E+02  2.0000000000E+02 0. 9.
       5    1    1    2  101    0 -6.1219327300E+01  2.0477978636E+01  1.5949409186E+02  1.7213201408E+02  4.8899168968E+00 0. 9.
#  0.2945643E+03  0.2945643E+03  0.6473843E+02
# model T2tt_200_0  18.5245 
</event>
<event>
     5     6  1.000000E+00  2.273699E+02  7.957747E-02  1.135443E-01
      21    -1    0    0  101  102  0.0000000000E+00  0.0000000000E+00  3.4576649065E+02  3.4576649065E+02  0.0000000000E+00 0. 9.
      21   -1    0    0  103  101  0.0000000000E+00  0.0000000000E+00 -2.0257949588E+02  2.0257949588E+02  0.0000000000E+00 0. 9.
 1000006    1    1    2  104    0  1.0128234873E+02 -4.9182022285E+01 -1.6940158933E+00  2.2952092534E+02  2.0000000000E+02 0. 9.
-1000006    1    1    2    0  102 -1.0584721616E+02  1.8198234351E+01  1.6584367631E+02  2.8113863817E+02  2.0000000000E+02 0. 9.
      21    1    1    2  103  104  4.5648674291E+00  3.0983787934E+01 -2.0962665642E+01  3.7686423022E+01  0.0000000000E+00 0. 9.
#  0.2273699E+03  0.2273699E+03  0.3131826E+02
# model T2tt_200_0  18.5245 
</event>
<event>
     4     7  1.000000E+00  2.320369E+02  7.957747E-02  1.132255E-01
      21    -1    0    0  101  102  0.0000000000E+00  0.0000000000E+00  8.0358492458E+02  8.0358492458E+02  0.0000000000E+00 0. 9.
      21   -1    0    0  103  101  0.0000000000E+00  0.0000000000E+00 -1.0640175825E+02  1.0640175825E+02  0.0000000000E+00 0. 9.
 1000006    1    1    2  103    0 -3.8661452424E+01  1.1111449374E+02  7.1717737113E+01  2.4286739682E+02  2.0000000000E+02 0. 9.
-1000006    1    1    2    0  102  3.8661452424E+01 -1.1111449374E+02  6.2546542921E+02  6.6711928601E+02  2.0000000000E+02 0. 9.
#  0.2320369E+03  0.2320369E+03
# model T2tt_200_0  18.5245 
</event>
<event>
     4     7  1.000000E+00  2.305915E+02  7.957747E-02  1.133234E-01
      21    -1    0    0  101  102  0.0000000000E+00  0.0000000000E+00  1.4765343524E+02  1.4765343524E+02  0.0000000000E+00 0. 9.
      21   -1    0    0  103  101  0.0000000000E+00  0.0000000000E+00 -3.8111048033E+02  3.8111048033E+02  0.0000000000E+00 0. 9.
 1000006    1    1    2  103    0  2.2940370222E+01 -1.1245530173E+02 -5.4676983274E+01  2.3698529063E+02  2.0000000000E+02 0. 9.
-1000006    1    1    2    0  102 -2.2940370222E+01  1.1245530173E+02 -1.7878006181E+02  2.9177862495E+02  2.0000000000E+02 0. 9.
#  0.2305915E+03  0.2305915E+03
# model T2tt_200_0  18.5245 
</event>
<event>
     4     7  1.000000E+00  2.154753E+02  7.957747E-02  1.143959E-01
      21    -1    0    0  101  102  0.0000000000E+00  0.0000000000E+00  6.6897383181E+02  6.6897383181E+02  0.0000000000E+00 0. 9.
      21   -1    0    0  103  101  0.0000000000E+00  0.0000000000E+00 -9.0912098288E+01  9.0912098288E+01  0.0000000000E+00 0. 9.
 1000006    1    1    2  103    0 -3.4216589968E+01  7.2517903198E+01  1.0422909279E+02  2.3936024126E+02  2.0000000000E+02 0. 9.
-1000006    1    1    2    0  102  3.4216589968E+01 -7.2517903198E+01  4.7383264074E+02  5.2052568884E+02  2.0000000000E+02 0. 9.
#  0.2154753E+03  0.2154753E+03
# model T2tt_200_0  18.5245 
</event>
<event>
     5     6  1.000000E+00  2.164412E+02  7.957747E-02  1.143245E-01
      21    -1    0    0  101  102  0.0000000000E+00  0.0000000000E+00  3.7740186757E+02  3.7740186757E+02  0.0000000000E+00 0. 9.
       2   -1    0    0  103    0  0.0000000000E+00  0.0000000000E+00 -8.3466825919E+02  8.3466825919E+02  0.0000000000E+00 0. 9.
 1000006    1    1    2  103    0  1.0618679361E+02 -9.1387649013E+01  7.7110545859E+01  2.5607298532E+02  2.0000000000E+02 0. 9.
-1000006    1    1    2    0  102 -1.8384070945E+01  5.0574055643E+01  1.5573151115E+02  2.5912933592E+02  2.0000000000E+02 0. 9.
       2    1    1    2  101    0 -8.7802722664E+01  4.0813593370E+01 -6.9010844863E+02  6.9686780553E+02  0.0000000000E+00 0. 9.
#  0.2164412E+03  0.2164412E+03  0.9682493E+02
# model T2tt_200_0  18.5245 
</event>
<event>
     4     7  1.000000E+00  2.000095E+02  7.957747E-02  1.155977E-01
      21    -1    0    0  101  102  0.0000000000E+00  0.0000000000E+00  5.7230065851E+01  5.7230065851E+01  0.0000000000E+00 0. 9.
      21   -1    0    0  103  101  0.0000000000E+00  0.0000000000E+00 -1.4118476424E+03  1.4118476424E+03  0.0000000000E+00 0. 9.
 1000006    1    1    2  103    0 -1.9426792600E+00 -1.2036538817E-01 -1.1992473231E+03  1.2158116345E+03  2.0000000000E+02 0. 9.
-1000006    1    1    2    0  102  1.9426792600E+00  1.2036538817E-01 -1.5537025348E+02  2.5326607384E+02  2.0000000000E+02 0. 9.
#  0.2000095E+03  0.2000095E+03
# model T2tt_200_0  18.5245 
</event>
<event>
     5     6  1.000000E+00  2.089799E+02  7.957747E-02  1.148867E-01
      21    -1    0    0  101  102  0.0000000000E+00  0.0000000000E+00  1.2487513071E+02  1.2487513071E+02  0.0000000000E+00 0. 9.
      21   -1    0    0  103  104  0.0000000000E+00  0.0000000000E+00 -7.8343849605E+02  7.8343849605E+02  0.0000000000E+00 0. 9.
 1000006    1    1    2  101    0 -3.2886340860E+00 -1.9236382020E+01 -1.8009490702E+02  2.6984260050E+02  2.0000000000E+02 0. 9.
-1000006    1    1    2    0  104 -7.5871872140E+01  4.2998911746E+01 -5.0625839188E+02  5.5127398518E+02  2.0000000000E+02 0. 9.
      21    1    1    2  103  102  7.9160506226E+01 -2.3762529726E+01  2.7789933563E+01  8.7197041076E+01  0.0000000000E+00 0. 9.
#  0.2089799E+03  0.2089799E+03  0.8265013E+02
# model T2tt_200_0  18.5245 
</event>
<event>
     5     6  1.000000E+00  2.031479E+02  7.957747E-02  1.153444E-01
      21    -1    0    0  101  102  0.0000000000E+00  0.0000000000E+00  1.0794748257E+02  1.0794748257E+02  0.0000000000E+00 0. 9.
      21   -1    0    0  103  104  0.0000000000E+00  0.0000000000E+00 -6.0708825253E+02  6.0708825253E+02  0.0000000000E+00 0. 9.
 1000006    1    1    2  103    0  3.9172017660E+01  5.0945083325E+01 -1.4492683811E+02  2.5521292461E+02  2.0000000000E+02 0. 9.
-1000006    1    1    2    0  102 -1.8539751774E+01 -1.3109848308E+01 -3.6371084950E+02  4.1569360418E+02  2.0000000000E+02 0. 9.
      21    1    1    2  101  104 -2.0632265886E+01 -3.7835235018E+01  9.4969176492E+00  4.4129206307E+01  0.0000000000E+00 0. 9.
#  0.2031479E+03  0.2031479E+03  0.4309519E+02
# model T2tt_200_0  18.5245 
</event>
<event>
     4     7  1.000000E+00  2.420788E+02  7.957747E-02  1.125667E-01
      21    -1    0    0  101  102  0.0000000000E+00  0.0000000000E+00  6.0400723872E+02  6.0400723872E+02  0.0000000000E+00 0. 9.
      21   -1    0    0  103  101  0.0000000000E+00  0.0000000000E+00 -1.0764577964E+02  1.0764577964E+02  0.0000000000E+00 0. 9.
 1000006    1    1    2  103    0  3.1792027745E+01 -1.3263264344E+02  1.3639821342E+02  2.7786079925E+02  2.0000000000E+02 0. 9.
-1000006    1    1    2    0  102 -3.1792027745E+01  1.3263264344E+02  3.5996324566E+02  4.3379221911E+02  2.0000000000E+02 0. 9.
#  0.2420788E+03  0.2420788E+03
# model T2tt_200_0  18.5245 
</event>
<event>
     5     6  1.000000E+00  2.497184E+02  7.957747E-02  1.120883E-01
      21    -1    0    0  101  102  0.0000000000E+00  0.0000000000E+00  1.6623406552E+03  1.6623406552E+03  0.0000000000E+00 0. 9.
      21   -1    0    0  103  104  0.0000000000E+00  0.0000000000E+00 -9.9580284075E+01  9.9580284075E+01  0.0000000000E+00 0. 9.
 1000006    1    1    2  101    0 -9.0415884844E+01 -4.6820907977E+01  1.7863846309E+02  2.8684304097E+02  2.0000000000E+02 0. 9.
-1000006    1    1    2    0  104  1.4665517666E+02  6.3641727043E+01  1.3924449475E+03  1.4157898651E+03  2.0000000000E+02 0. 9.
      21    1    1    2  103  102 -5.6239291814E+01 -1.6820819066E+01 -8.3230394631E+00  5.9288033224E+01  0.0000000000E+00 0. 9.
#  0.2497184E+03  0.2497184E+03  0.5870092E+02
# model T2tt_200_0  18.5245 
</event>
<event>
     4     7  1.000000E+00  2.021124E+02  7.957747E-02  1.154274E-01
      21    -1    0    0  101  102  0.0000000000E+00  0.0000000000E+00  1.5797700057E+02  1.5797700057E+02  0.0000000000E+00 0. 9.
      21   -1    0    0  102  103  0.0000000000E+00  0.0000000000E+00 -2.8809156292E+02  2.8809156292E+02  0.0000000000E+00 0. 9.
 1000006    1    1    2  101    0 -1.0045706889E+01  2.7359176658E+01  6.3289075357E+00  2.0221151264E+02  2.0000000000E+02 0. 9.
-1000006    1    1    2    0  103  1.0045706889E+01 -2.7359176658E+01 -1.3644346988E+02  2.4385705085E+02  2.0000000000E+02 0. 9.
#  0.2021124E+03  0.2021124E+03
# model T2tt_200_0  18.5245 
</event>
<event>
     4     7  1.000000E+00  2.384109E+02  7.957747E-02  1.128032E-01
      21    -1    0    0  101  102  0.0000000000E+00  0.0000000000E+00  1.7840199194E+02  1.7840199194E+02  0.0000000000E+00 0. 9.
      21   -1    0    0  102  103  0.0000000000E+00  0.0000000000E+00 -4.8383548486E+02  4.8383548486E+02  0.0000000000E+00 0. 9.
 1000006    1    1    2  101    0 -1.0258261649E+02 -7.9476751252E+01  4.0782880559E+01  2.4187391455E+02  2.0000000000E+02 0. 9.
-1000006    1    1    2    0  103  1.0258261649E+02  7.9476751252E+01 -3.4621637348E+02  4.2036356224E+02  2.0000000000E+02 0. 9.
#  0.2384109E+03  0.2384109E+03
# model T2tt_200_0  18.5245 
</event>
<event>
     4     7  1.000000E+00  2.168986E+02  7.957747E-02  1.142908E-01
      21    -1    0    0  101  102  0.0000000000E+00  0.0000000000E+00  6.5707207716E+02  6.5707207716E+02  0.0000000000E+00 0. 9.
      21   -1    0    0  103  101  0.0000000000E+00  0.0000000000E+00 -8.4083168571E+01  8.4083168571E+01  0.0000000000E+00 0. 9.
 1000006    1    1    2  103    0  3.8137000884E+01 -7.4770095765E+01  4.2929279010E+02  4.8097536080E+02  2.0000000000E+02 0. 9.
-1000006    1    1    2    0  102 -3.8137000884E+01  7.4770095765E+01  1.4369611848E+02  2.6017988493E+02  2.0000000000E+02 0. 9.
#  0.2168986E+03  0.2168986E+03
# model T2tt_200_0  18.5245 
</event>
<event>
     4     7  1.000000E+00  2.185310E+02  7.957747E-02  1.141715E-01
      21    -1    0    0  101  102  0.0000000000E+00  0.0000000000E+00  1.7062599720E+02  1.7062599720E+02  0.0000000000E+00 0. 9.
      21   -1    0    0  103  101  0.0000000000E+00  0.0000000000E+00 -2.8150303252E+02  2.8150303252E+02  0.0000000000E+00 0. 9.
 1000006    1    1    2  103    0  4.9535429424E+01 -7.2814979035E+01 -7.2573668845E+01  2.3026662231E+02  2.0000000000E+02 0. 9.
-1000006    1    1    2    0  102 -4.9535429424E+01  7.2814979035E+01 -3.8303366479E+01  2.2186240741E+02  2.0000000000E+02 0. 9.
#  0.2185310E+03  0.2185310E+03
# model T2tt_200_0  18.5245 
</event>
<event>
     4     7  1.000000E+00  2.546809E+02  7.957747E-02  1.117874E-01
       3   -1    0    0  101    0  0.0000000000E+00  0.0000000000E+00  1.6178937826E+02  1.6178937826E+02  0.0000000000E+00 0. 9.
      -3   -1    0    0    0  102  0.0000000000E+00  0.0000000000E+00 -4.0189733833E+02  4.0189733833E+02  0.0000000000E+00 0. 9.
 1000006    1    1    2  101    0 -4.4297247941E+01 -1.5132792217E+02 -1.0605847926E+02  2.7588183562E+02  2.0000000000E+02 0. 9.
-1000006    1    1    2    0  102  4.4297247941E+01  1.5132792217E+02 -1.3404948081E+02  2.8780488097E+02  2.0000000000E+02 0. 9.
#  0.3742872E+03  0.3742872E+03
# model T2tt_200_0  18.5245 
#mrenna fix
</event>
<event>
     5     6  1.000000E+00  2.183723E+02  7.957747E-02  1.141830E-01
      21    -1    0    0  101  102  0.0000000000E+00  0.0000000000E+00  6.1276309956E+02  6.1276309956E+02  0.0000000000E+00 0. 9.
      21   -1    0    0  102  103  0.0000000000E+00  0.0000000000E+00 -9.3851387722E+01  9.3851387722E+01  0.0000000000E+00 0. 9.
 1000006    1    1    2  104    0  4.9098290660E+01  9.4515522962E+01  2.9679837580E+02  3.7340742107E+02  2.0000000000E+02 0. 9.
-1000006    1    1    2    0  103 -4.1302685376E+01 -6.2731240425E+01  1.7677578192E+02  2.7729189930E+02  2.0000000000E+02 0. 9.
      21    1    1    2  101  104 -7.7956052845E+00 -3.1784282537E+01  4.5337554109E+01  5.5915166912E+01  0.0000000000E+00 0. 9.
#  0.2183723E+03  0.2183723E+03  0.3272632E+02
# model T2tt_200_0  18.5245 
</event>
<event>
     4     7  1.000000E+00  2.102541E+02  7.957747E-02  1.147889E-01
      21    -1    0    0  101  102  0.0000000000E+00  0.0000000000E+00  1.6642536769E+02  1.6642536769E+02  0.0000000000E+00 0. 9.
      21   -1    0    0  103  101  0.0000000000E+00  0.0000000000E+00 -3.0352569072E+02  3.0352569072E+02  0.0000000000E+00 0. 9.
 1000006    1    1    2  103    0  6.2041088188E+01 -1.8912297731E+01 -1.5158251027E+02  2.5919882146E+02  2.0000000000E+02 0. 9.
-1000006    1    1    2    0  102 -6.2041088188E+01  1.8912297731E+01  1.4482187243E+01  2.1075223694E+02  2.0000000000E+02 0. 9.
#  0.2102541E+03  0.2102541E+03
# model T2tt_200_0  18.5245 
</event>
<event>
     6     4  1.000000E+00  2.005141E+02  7.957747E-02  1.155566E-01
       2    -1    0    0  101    0  0.0000000000E+00  0.0000000000E+00  1.9582413570E+03  1.9582413570E+03  0.0000000000E+00 0. 9.
      21   -1    0    0  102  101  0.0000000000E+00  0.0000000000E+00 -7.3415542154E+01  7.3415542154E+01  0.0000000000E+00 0. 9.
 1000006    1    1    2  102    0 -5.4766584746E+00  1.8708852064E+01  1.1454325531E+03  1.1629255129E+03  2.0000000000E+02 0. 9.
-1000006    1    1    2    0  103 -3.9668493342E+00 -7.3217109466E+00  7.2633167715E+02  7.5341027905E+02  2.0000000000E+02 0. 9.
      21    1    1    2  103  104  1.9224423104E+01 -5.9861647907E+01  1.8585000991E+01  6.5562165886E+01  0.0000000000E+00 0. 9.
       2    1    1    2  104    0 -9.7809152955E+00  4.8474506790E+01 -5.5234163640E+00  4.9758941316E+01  0.0000000000E+00 0. 9.
#  0.2205055E+03  0.2205055E+03  0.3776138E+02  0.4945143E+02
# model T2tt_200_0  18.5245 
</event>
<event>
     5     6  1.000000E+00  2.047204E+02  7.957747E-02  1.152193E-01
      21    -1    0    0  101  102  0.0000000000E+00  0.0000000000E+00  1.3386678345E+02  1.3386678345E+02  0.0000000000E+00 0. 9.
      21   -1    0    0  103  104  0.0000000000E+00  0.0000000000E+00 -7.8889827507E+02  7.8889827507E+02  0.0000000000E+00 0. 9.
 1000006    1    1    2  103    0  1.6760064586E+01  1.8512994627E+01 -5.1147313877E+02  5.4975303766E+02  2.0000000000E+02 0. 9.
-1000006    1    1    2    0  102  3.4062847515E+01  4.5917045275E+01 -4.1177320962E-01  2.0801159147E+02  2.0000000000E+02 0. 9.
      21    1    1    2  101  104 -5.0822912101E+01 -6.4430039902E+01 -1.4314657965E+02  1.6500042940E+02  0.0000000000E+00 0. 9.
#  0.2047204E+03  0.2047204E+03  0.8206216E+02
# model T2tt_200_0  18.5245 
</event>
<event>
     4     7  1.000000E+00  2.460017E+02  7.957747E-02  1.123187E-01
      21    -1    0    0  101  102  0.0000000000E+00  0.0000000000E+00  8.2001995270E+01  8.2001995270E+01  0.0000000000E+00 0. 9.
      21   -1    0    0  103  101  0.0000000000E+00  0.0000000000E+00 -1.3299043511E+03  1.3299043511E+03  0.0000000000E+00 0. 9.
 1000006    1    1    2  103    0  1.1739329079E+02 -8.2070992654E+01 -1.0949223451E+03  1.1222173472E+03  2.0000000000E+02 0. 9.
-1000006    1    1    2    0  102 -1.1739329079E+02  8.2070992654E+01 -1.5298001073E+02  2.8968899917E+02  2.0000000000E+02 0. 9.
#  0.2460017E+03  0.2460017E+03
# model T2tt_200_0  18.5245 
</event>
<event>
     5     6  1.000000E+00  2.126017E+02  7.957747E-02  1.146106E-01
      21    -1    0    0  101  102  0.0000000000E+00  0.0000000000E+00  4.7411260984E+02  4.7411260984E+02  0.0000000000E+00 0. 9.
      21   -1    0    0  102  103  0.0000000000E+00  0.0000000000E+00 -2.1718752798E+02  2.1718752798E+02  0.0000000000E+00 0. 9.
 1000006    1    1    2  101    0  8.5800827196E+01  5.2648153684E+00  2.3602338389E+02  3.2108649609E+02  2.0000000000E+02 0. 9.
-1000006    1    1    2    0  104 -5.0145720565E+01 -2.8409921303E+01  1.3524830176E+02  2.4822131264E+02  2.0000000000E+02 0. 9.
      21    1    1    2  104  103 -3.5655106631E+01  2.3145105935E+01 -1.1434660379E+02  1.2199232909E+02  0.0000000000E+00 0. 9.
#  0.2126017E+03  0.2126017E+03  0.4250862E+02
# model T2tt_200_0  18.5245 
</event>
<event>
     6     4  1.000000E+00  2.182796E+02  7.957747E-02  1.141898E-01
      21    -1    0    0  101  102  0.0000000000E+00  0.0000000000E+00  7.6305996576E+01  7.6305996576E+01  0.0000000000E+00 0. 9.
      21   -1    0    0  103  104  0.0000000000E+00  0.0000000000E+00 -1.5323807075E+03  1.5323807075E+03  0.0000000000E+00 0. 9.
 1000006    1    1    2  101    0 -1.6405952018E+02 -1.0243531975E+02 -4.7885494417E+02  5.5381457046E+02  2.0000000000E+02 0. 9.
-1000006    1    1    2    0  104  4.0502655477E+01  2.6802484032E+01 -7.5628087273E+02  7.8378542772E+02  2.0000000000E+02 0. 9.
      21    1    1    2  105  102  9.9673234493E+01  2.8880988869E+01 -1.3337093123E+02  1.6898719032E+02  0.0000000000E+00 0. 9.
      21    1    1    2  103  105  2.3883630206E+01  4.6751846847E+01 -8.7567962780E+01  1.0209951558E+02  0.0000000000E+00 0. 9.
#  0.2182796E+03  0.2182796E+03  0.1570796E+03  0.4319096E+02
# model T2tt_200_0  18.5245 
</event>
<event>
     5     6  1.000000E+00  2.137180E+02  7.957747E-02  1.145268E-01
      21    -1    0    0  101  102  0.0000000000E+00  0.0000000000E+00  2.0066946207E+02  2.0066946207E+02  0.0000000000E+00 0. 9.
      21   -1    0    0  103  101  0.0000000000E+00  0.0000000000E+00 -5.3829104663E+02  5.3829104663E+02  0.0000000000E+00 0. 9.
 1000006    1    1    2  103    0 -2.6705027706E+01 -1.4087059802E+02 -1.5352028876E+02  2.9004510503E+02  2.0000000000E+02 0. 9.
-1000006    1    1    2    0  104  1.6568855668E+01  3.6489723985E+01 -2.5182978356E+02  3.2407447728E+02  2.0000000000E+02 0. 9.
      21    1    1    2  104  102  1.0136172038E+01  1.0438087404E+02  6.7728487750E+01  1.2484092639E+02  0.0000000000E+00 0. 9.
#  0.2137180E+03  0.2137180E+03  0.1048719E+03
# model T2tt_200_0  18.5245 
</event>
<event>
     4     7  1.000000E+00  2.094036E+02  7.957747E-02  1.148541E-01
      21    -1    0    0  101  102  0.0000000000E+00  0.0000000000E+00  7.6414155227E+01  7.6414155227E+01  0.0000000000E+00 0. 9.
      21   -1    0    0  102  103  0.0000000000E+00  0.0000000000E+00 -6.4037540170E+02  6.4037540170E+02  0.0000000000E+00 0. 9.
 1000006    1    1    2  101    0 -3.7352934862E+01  4.9544132972E+01 -1.6646115078E+02  2.6750547205E+02  2.0000000000E+02 0. 9.
-1000006    1    1    2    0  103  3.7352934862E+01 -4.9544132972E+01 -3.9750009569E+02  4.4928408488E+02  2.0000000000E+02 0. 9.
#  0.2094036E+03  0.2094036E+03
# model T2tt_200_0  18.5245 
</event>
<event>
     4     7  1.000000E+00  2.093139E+02  7.957747E-02  1.148610E-01
      21    -1    0    0  101  102  0.0000000000E+00  0.0000000000E+00  1.0875104617E+02  1.0875104617E+02  0.0000000000E+00 0. 9.
      21   -1    0    0  102  103  0.0000000000E+00  0.0000000000E+00 -4.8132285195E+02  4.8132285195E+02  0.0000000000E+00 0. 9.
 1000006    1    1    2  101    0  6.0711458691E+01 -1.1243558303E+01 -6.7170336402E+01  2.1982755267E+02  2.0000000000E+02 0. 9.
-1000006    1    1    2    0  103 -6.0711458691E+01  1.1243558303E+01 -3.0540146938E+02  3.7024634545E+02  2.0000000000E+02 0. 9.
#  0.2093139E+03  0.2093139E+03
# model T2tt_200_0  18.5245 
</event>
<event>
     4     7  1.000000E+00  2.376209E+02  7.957747E-02  1.128548E-01
      21    -1    0    0  101  102  0.0000000000E+00  0.0000000000E+00  1.9399173999E+02  1.9399173999E+02  0.0000000000E+00 0. 9.
      21   -1    0    0  102  103  0.0000000000E+00  0.0000000000E+00 -2.9349857730E+02  2.9349857730E+02  0.0000000000E+00 0. 9.
 1000006    1    1    2  101    0  1.1172140760E+02  6.3103159550E+01 -2.7546079615E+01  2.3921218231E+02  2.0000000000E+02 0. 9.
-1000006    1    1    2    0  103 -1.1172140760E+02 -6.3103159550E+01 -7.1960757689E+01  2.4827813498E+02  2.0000000000E+02 0. 9.
#  0.2376209E+03  0.2376209E+03
# model T2tt_200_0  18.5245 
</event>
<event>
     4     7  1.000000E+00  2.108492E+02  7.957747E-02  1.147435E-01
      21    -1    0    0  101  102  0.0000000000E+00  0.0000000000E+00  4.1658936939E+02  4.1658936939E+02  0.0000000000E+00 0. 9.
      21   -1    0    0  103  101  0.0000000000E+00  0.0000000000E+00 -1.5487325686E+02  1.5487325686E+02  0.0000000000E+00 0. 9.
 1000006    1    1    2  103    0  3.0423526009E+01 -5.9428832944E+01 -2.8470534944E+01  2.1276265763E+02  2.0000000000E+02 0. 9.
-1000006    1    1    2    0  102 -3.0423526009E+01  5.9428832944E+01  2.9018664747E+02  3.5869996862E+02  2.0000000000E+02 0. 9.
#  0.2108492E+03  0.2108492E+03
# model T2tt_200_0  18.5245 
</event>
<event>
     4     7  1.000000E+00  4.360578E+02  7.957747E-02  1.041480E-01
      21    -1    0    0  101  102  0.0000000000E+00  0.0000000000E+00  6.9465792220E+02  6.9465792220E+02  0.0000000000E+00 0. 9.
      21   -1    0    0  102  103  0.0000000000E+00  0.0000000000E+00 -4.6848367230E+02  4.6848367230E+02  0.0000000000E+00 0. 9.
 1000006    1    1    2  101    0 -2.4084605402E+01  3.8673806956E+02  4.8806176536E+02  6.5448505673E+02  2.0000000000E+02 0. 9.
-1000006    1    1    2    0  103  2.4084605402E+01 -3.8673806956E+02 -2.6188751546E+02  5.0865653777E+02  2.0000000000E+02 0. 9.
#  0.4360578E+03  0.4360578E+03
# model T2tt_200_0  18.5245 
</event>
<event>
     4     7  1.000000E+00  2.052109E+02  7.957747E-02  1.151806E-01
      21    -1    0    0  101  102  0.0000000000E+00  0.0000000000E+00  6.8652758723E+02  6.8652758723E+02  0.0000000000E+00 0. 9.
      21   -1    0    0  103  101  0.0000000000E+00  0.0000000000E+00 -7.5475959931E+01  7.5475959931E+01  0.0000000000E+00 0. 9.
 1000006    1    1    2  103    0 -4.5392135137E+01  7.1475538439E+00  1.4063864311E+02  2.4877853885E+02  2.0000000000E+02 0. 9.
-1000006    1    1    2    0  102  4.5392135137E+01 -7.1475538439E+00  4.7041298419E+02  5.1322500831E+02  2.0000000000E+02 0. 9.
#  0.2052109E+03  0.2052109E+03
# model T2tt_200_0  18.5245 
</event>
<event>
     4     7  1.000000E+00  2.127847E+02  7.957747E-02  1.145969E-01
      21    -1    0    0  101  102  0.0000000000E+00  0.0000000000E+00  1.1104220025E+02  1.1104220025E+02  0.0000000000E+00 0. 9.
      21   -1    0    0  102  103  0.0000000000E+00  0.0000000000E+00 -6.7953058194E+02  6.7953058194E+02  0.0000000000E+00 0. 9.
 1000006    1    1    2  101    0 -2.0469320409E+01 -6.9701703751E+01 -3.4257116379E+01  2.1552464037E+02  2.0000000000E+02 0. 9.
-1000006    1    1    2    0  103  2.0469320409E+01  6.9701703751E+01 -5.3423126531E+02  5.7504814183E+02  2.0000000000E+02 0. 9.
#  0.2127847E+03  0.2127847E+03
# model T2tt_200_0  18.5245 
</event>
<event>
     5     6  1.000000E+00  2.082175E+02  7.957747E-02  1.149456E-01
      21    -1    0    0  101  102  0.0000000000E+00  0.0000000000E+00  1.5196565842E+03  1.5196565842E+03  0.0000000000E+00 0. 9.
      21   -1    0    0  103  104  0.0000000000E+00  0.0000000000E+00 -4.3155260050E+01  4.3155260050E+01  0.0000000000E+00 0. 9.
 1000006    1    1    2  101    0 -1.8209434219E+01 -3.3930656120E+01  5.4422905699E+02  5.8109219525E+02  2.0000000000E+02 0. 9.
-1000006    1    1    2    0  104 -5.9239850584E+01  7.0951065561E+01  7.1205521621E+02  7.4536302869E+02  2.0000000000E+02 0. 9.
      21    1    1    2  103  102  7.7449284802E+01 -3.7020409441E+01  2.2021705093E+02  2.3635662029E+02  0.0000000000E+00 0. 9.
#  0.2082175E+03  0.2082175E+03  0.8584231E+02
# model T2tt_200_0  18.5245 
</event>
<event>
     4     7  1.000000E+00  2.625252E+02  7.957747E-02  1.113268E-01
      21    -1    0    0  101  102  0.0000000000E+00  0.0000000000E+00  1.0977300122E+02  1.0977300122E+02  0.0000000000E+00 0. 9.
      21   -1    0    0  103  101  0.0000000000E+00  0.0000000000E+00 -7.1063897604E+02  7.1063897604E+02  0.0000000000E+00 0. 9.
 1000006    1    1    2  103    0  1.6133174077E+01  1.6929025697E+02 -4.4045611662E+02  5.1275828719E+02  2.0000000000E+02 0. 9.
-1000006    1    1    2    0  102 -1.6133174077E+01 -1.6929025697E+02 -1.6040985820E+02  3.0765369007E+02  2.0000000000E+02 0. 9.
#  0.2625252E+03  0.2625252E+03
# model T2tt_200_0  18.5245 
</event>
<event>
     4     7  1.000000E+00  2.019052E+02  7.957747E-02  1.154441E-01
      21    -1    0    0  101  102  0.0000000000E+00  0.0000000000E+00  5.2341577530E+01  5.2341577530E+01  0.0000000000E+00 0. 9.
      21   -1    0    0  102  103  0.0000000000E+00  0.0000000000E+00 -8.9658961289E+02  8.9658961289E+02  0.0000000000E+00 0. 9.
 1000006    1    1    2  101    0  2.6752268344E+01  7.0735098949E+00 -5.9406819432E+02  6.2744142190E+02  2.0000000000E+02 0. 9.
-1000006    1    1    2    0  103 -2.6752268344E+01 -7.0735098949E+00 -2.5017984103E+02  3.2148976852E+02  2.0000000000E+02 0. 9.
#  0.2019052E+03  0.2019052E+03
# model T2tt_200_0  18.5245 
</event>
<event>
     4     7  1.000000E+00  2.363467E+02  7.957747E-02  1.129384E-01
      -2    -1    0    0    0  101  0.0000000000E+00  0.0000000000E+00  7.8734028541E+01  7.8734028541E+01  0.0000000000E+00 0. 9.
       2   -1    0    0  102    0  0.0000000000E+00  0.0000000000E+00 -7.2558150493E+02  7.2558150493E+02  0.0000000000E+00 0. 9.
 1000006    1    1    2  102    0 -8.6431646623E+01 -9.1593271873E+01 -2.6350458854E+02  3.5396952577E+02  2.0000000000E+02 0. 9.
-1000006    1    1    2    0  101  8.6431646623E+01  9.1593271873E+01 -3.8334288785E+02  4.5034600771E+02  2.0000000000E+02 0. 9.
#  0.3294113E+03  0.3294113E+03
# model T2tt_200_0  18.5245 
</event>
<event>
     4     7  1.000000E+00  2.184957E+02  7.957747E-02  1.141740E-01
      21    -1    0    0  101  102  0.0000000000E+00  0.0000000000E+00  2.2364265334E+02  2.2364265334E+02  0.0000000000E+00 0. 9.
      21   -1    0    0  102  103  0.0000000000E+00  0.0000000000E+00 -2.4296047499E+02  2.4296047499E+02  0.0000000000E+00 0. 9.
 1000006    1    1    2  101    0  8.0909317049E+01  3.4554825593E+01  7.1626370122E+01  2.2993627477E+02  2.0000000000E+02 0. 9.
-1000006    1    1    2    0  103 -8.0909317049E+01 -3.4554825593E+01 -9.0944191769E+01  2.3666685356E+02  2.0000000000E+02 0. 9.
#  0.2184957E+03  0.2184957E+03
# model T2tt_200_0  18.5245 
</event>
<event>
     5     6  1.000000E+00  2.075811E+02  7.957747E-02  1.149950E-01
      21    -1    0    0  101  102  0.0000000000E+00  0.0000000000E+00  3.0077356089E+02  3.0077356089E+02  0.0000000000E+00 0. 9.
      21   -1    0    0  103  104  0.0000000000E+00  0.0000000000E+00 -3.0121145143E+02  3.0121145143E+02  0.0000000000E+00 0. 9.
 1000006    1    1    2  101    0  6.9927567546E+00  2.5284829083E+01  1.5838491129E+02  2.5646442512E+02  2.0000000000E+02 0. 9.
-1000006    1    1    2    0  104 -6.6653054469E+01  1.6464530399E+01 -1.7067893830E+02  2.7174438432E+02  2.0000000000E+02 0. 9.
      21    1    1    2  103  102  5.9660297714E+01 -4.1749359482E+01  1.1856136466E+01  7.3776202887E+01  0.0000000000E+00 0. 9.
#  0.2075811E+03  0.2075811E+03  0.7281731E+02
# model T2tt_200_0  18.5245 
</event>
<event>
     4     7  1.000000E+00  2.546809E+02  7.957747E-02  1.117875E-01
      21    -1    0    0  101  102  0.0000000000E+00  0.0000000000E+00  2.5746327946E+02  2.5746327946E+02  0.0000000000E+00 0. 9.
      21   -1    0    0  102  103  0.0000000000E+00  0.0000000000E+00 -3.3180449220E+02  3.3180449220E+02  0.0000000000E+00 0. 9.
 1000006    1    1    2  101    0 -1.0372626158E+02  1.1875690553E+02  1.0738990408E+02  2.7639633038E+02  2.0000000000E+02 0. 9.
-1000006    1    1    2    0  103  1.0372626158E+02 -1.1875690553E+02 -1.8173111682E+02  3.1287144129E+02  2.0000000000E+02 0. 9.
#  0.2546809E+03  0.2546809E+03
# model T2tt_200_0  18.5245 
</event>
<event>
     5     6  1.000000E+00  2.286161E+02  7.957747E-02  1.134583E-01
       2    -1    0    0  101    0  0.0000000000E+00  0.0000000000E+00  4.6672476264E+02  4.6672476264E+02  0.0000000000E+00 0. 9.
      21   -1    0    0  102  103  0.0000000000E+00  0.0000000000E+00 -2.8716025107E+02  2.8716025107E+02  0.0000000000E+00 0. 9.
 1000006    1    1    2  101    0  6.5903163002E+01 -1.8791080861E+02 -9.7313438584E+00  2.8239758841E+02  2.0000000000E+02 0. 9.
-1000006    1    1    2    0  103  1.3771890115E+01  5.5279652747E+01 -2.2529636887E+01  2.0917239183E+02  2.0000000000E+02 0. 9.
       2    1    1    2  102    0 -7.9675053117E+01  1.3263115586E+02  2.1182549232E+02  2.6231503348E+02  0.0000000000E+00 0. 9.
#  0.2286161E+03  0.2286161E+03  0.1547228E+03
# model T2tt_200_0  18.5245 
</event>
<event>
     5     6  1.000000E+00  2.262405E+02  7.957747E-02  1.136226E-01
      21    -1    0    0  101  102  0.0000000000E+00  0.0000000000E+00  4.9502720894E+02  4.9502720894E+02  0.0000000000E+00 0. 9.
      21   -1    0    0  103  104  0.0000000000E+00  0.0000000000E+00 -2.6150413551E+02  2.6150413551E+02  0.0000000000E+00 0. 9.
 1000006    1    1    2  103    0 -6.3152156253E+01 -4.3194235590E+01 -1.0218259929E+02  2.3726613839E+02  2.0000000000E+02 0. 9.
-1000006    1    1    2    0  102  1.1294995297E+02  6.5275883772E+00  3.7939059025E+02  4.4355103569E+02  2.0000000000E+02 0. 9.
      21    1    1    2  101  104 -4.9797796715E+01  3.6666647213E+01 -4.3684917540E+01  7.5714170377E+01  0.0000000000E+00 0. 9.
#  0.2262405E+03  0.2262405E+03  0.6184063E+02
# model T2tt_200_0  18.5245 
</event>
<event>
     4     7  1.000000E+00  2.128392E+02  7.957747E-02  1.145927E-01
      21    -1    0    0  101  102  0.0000000000E+00  0.0000000000E+00  7.9553759179E+02  7.9553759179E+02  0.0000000000E+00 0. 9.
      21   -1    0    0  102  103  0.0000000000E+00  0.0000000000E+00 -7.2161998213E+01  7.2161998213E+01  0.0000000000E+00 0. 9.
 1000006    1    1    2  101    0 -5.3582577846E+01 -4.9289435721E+01  5.6092653262E+02  5.9994926128E+02  2.0000000000E+02 0. 9.
-1000006    1    1    2    0  103  5.3582577846E+01  4.9289435721E+01  1.6244906096E+02  2.6775032872E+02  2.0000000000E+02 0. 9.
#  0.2128392E+03  0.2128392E+03
# model T2tt_200_0  18.5245 
</event>
<event>
     6     4  1.000000E+00  2.124633E+02  7.957747E-02  1.146211E-01
       1   -1    0    0  101    0  0.0000000000E+00  0.0000000000E+00  4.5220054069E+02  4.5220054069E+02  0.0000000000E+00 0. 9.
      21   -1    0    0  102  103  0.0000000000E+00  0.0000000000E+00 -2.9654126484E+02  2.9654126484E+02  0.0000000000E+00 0. 9.
 1000006    1    1    2  101    0 -6.3717912617E+01 -2.4953889393E+01  1.5325813729E+02  2.6109524245E+02  2.0000000000E+02 0. 9.
-1000006    1    1    2    0  103  7.9218616215E+01 -5.1553927163E+01  1.3444214684E+02  2.5885920383E+02  2.0000000000E+02 0. 9.
      21    1    1    2  102  104  3.1940884819E+01  1.0317278628E+02 -1.3664142182E+02  1.7417153071E+02  0.0000000000E+00 0. 9.
       1    1    1    2  104    0 -4.7441588417E+01 -2.6664969724E+01  4.6004135388E+00  5.4615828536E+01  0.0000000000E+00 0. 9.
#  0.2479666E+03  0.2479666E+03  0.8804198E+02  0.5442173E+02
# model T2tt_200_0  18.5245 
#mrenna fix
</event>
<event>
     6     4  1.000000E+00  2.091719E+02  7.957747E-02  1.148719E-01
      21    -1    0    0  101  102  0.0000000000E+00  0.0000000000E+00  4.7592341706E+02  4.7592341706E+02  0.0000000000E+00 0. 9.
      21   -1    0    0  102  103  0.0000000000E+00  0.0000000000E+00 -2.1260730254E+02  2.1260730254E+02  0.0000000000E+00 0. 9.
 1000006    1    1    2  104    0 -9.1508366444E+00 -4.3091816250E+01  1.0380816786E+02  2.2960134615E+02  2.0000000000E+02 0. 9.
-1000006    1    1    2    0  103  7.8192988675E+01  2.1529933312E+01 -3.8156706210E+01  2.1916572664E+02  2.0000000000E+02 0. 9.
      21    1    1    2  101  105 -2.9946876219E+01 -4.6650789281E+01  1.0048845214E+02  1.1476515390E+02  0.0000000000E+00 0. 9.
      21    1    1    2  105  104 -3.9095275812E+01  6.8212672218E+01  9.7176200736E+01  1.2499849292E+02  0.0000000000E+00 0. 9.
#  0.2091719E+03  0.2091719E+03  0.5543565E+02  0.7244047E+02
# model T2tt_200_0  18.5245 
</event>
<event>
     4     7  1.000000E+00  4.040533E+02  7.957747E-02  1.051668E-01
      21    -1    0    0  101  102  0.0000000000E+00  0.0000000000E+00  8.0041545529E+02  8.0041545529E+02  0.0000000000E+00 0. 9.
      21   -1    0    0  103  101  0.0000000000E+00  0.0000000000E+00 -2.3090580806E+02  2.3090580806E+02  0.0000000000E+00 0. 9.
 1000006    1    1    2  103    0  3.2624520547E+02 -1.2970391916E+02  1.0862671542E+02  4.1840029164E+02  2.0000000000E+02 0. 9.
-1000006    1    1    2    0  102 -3.2624520547E+02  1.2970391916E+02  4.6088293181E+02  6.1292097172E+02  2.0000000000E+02 0. 9.
#  0.4040533E+03  0.4040533E+03
# model T2tt_200_0  18.5245 
</event>
<event>
     4     7  1.000000E+00  2.247194E+02  7.957747E-02  1.137290E-01
      21    -1    0    0  101  102  0.0000000000E+00  0.0000000000E+00  6.1865404259E+02  6.1865404259E+02  0.0000000000E+00 0. 9.
      21   -1    0    0  103  101  0.0000000000E+00  0.0000000000E+00 -8.6117084973E+01  8.6117084973E+01  0.0000000000E+00 0. 9.
 1000006    1    1    2  103    0 -1.3670550597E+01  1.0154759609E+02  3.4673340457E+02  4.1318621960E+02  2.0000000000E+02 0. 9.
-1000006    1    1    2    0  102  1.3670550597E+01 -1.0154759609E+02  1.8580355305E+02  2.9158490796E+02  2.0000000000E+02 0. 9.
#  0.2247194E+03  0.2247194E+03
# model T2tt_200_0  18.5245 
</event>
<event>
     5     6  1.000000E+00  2.675467E+02  7.957747E-02  1.110410E-01
      21    -1    0    0  101  102  0.0000000000E+00  0.0000000000E+00  6.1604361869E+02  6.1604361869E+02  0.0000000000E+00 0. 9.
      21   -1    0    0  103  104  0.0000000000E+00  0.0000000000E+00 -2.3769024049E+02  2.3769024049E+02  0.0000000000E+00 0. 9.
 1000006    1    1    2  101    0  1.0634389443E+02 -1.2891827790E+02  3.3292636246E+02  4.2281072489E+02  2.0000000000E+02 0. 9.
-1000006    1    1    2    0  104 -4.9730771430E+01  2.1063291716E+02  1.0755078375E+02  3.1369817740E+02  2.0000000000E+02 0. 9.
      21    1    1    2  103  102 -5.6613122999E+01 -8.1714639260E+01 -6.2123768007E+01  1.1722495688E+02  0.0000000000E+00 0. 9.
#  0.2675467E+03  0.2675467E+03  0.9940990E+02
# model T2tt_200_0  18.5245 
</event>
<event>
     5     6  1.000000E+00  2.125569E+02  7.957747E-02  1.146140E-01
      21    -1    0    0  101  102  0.0000000000E+00  0.0000000000E+00  4.6265979521E+02  4.6265979521E+02  0.0000000000E+00 0. 9.
      21   -1    0    0  103  104  0.0000000000E+00  0.0000000000E+00 -1.4003458304E+02  1.4003458304E+02  0.0000000000E+00 0. 9.
 1000006    1    1    2  101    0 -2.8164794699E+01 -3.8724431479E+01  7.5673828032E+01  2.1913321406E+02  2.0000000000E+02 0. 9.
-1000006    1    1    2    0  104  7.5940730071E+01  8.1541547421E+01  1.8457939512E+02  2.9408429326E+02  2.0000000000E+02 0. 9.
      21    1    1    2  103  102 -4.7775935372E+01 -4.2817115942E+01  6.2371989011E+01  8.9476870930E+01  0.0000000000E+00 0. 9.
#  0.2125569E+03  0.2125569E+03  0.6415485E+02
# model T2tt_200_0  18.5245 
</event>
<event>
     5     6  1.000000E+00  2.800593E+02  7.957747E-02  1.103576E-01
      21    -1    0    0  101  102  0.0000000000E+00  0.0000000000E+00  4.4787494074E+02  4.4787494074E+02  0.0000000000E+00 0. 9.
      21   -1    0    0  103  104  0.0000000000E+00  0.0000000000E+00 -2.6749620778E+02  2.6749620778E+02  0.0000000000E+00 0. 9.
 1000006    1    1    2  103    0  2.3696613756E+01  1.7792288080E+02  1.5338391344E+02  3.0942641438E+02  2.0000000000E+02 0. 9.
-1000006    1    1    2    0  102 -1.0068662387E+02 -2.0443258559E+02  7.3761977060E+01  3.1204375901E+02  2.0000000000E+02 0. 9.
      21    1    1    2  101  104  7.6990010113E+01  2.6509704787E+01 -4.6767157534E+01  9.3900975123E+01  0.0000000000E+00 0. 9.
#  0.2800593E+03  0.2800593E+03  0.8142620E+02
# model T2tt_200_0  18.5245 
</event>
<event>
     5     6  1.000000E+00  2.100005E+02  7.957747E-02  1.148083E-01
      21    -1    0    0  101  102  0.0000000000E+00  0.0000000000E+00  1.8877492390E+02  1.8877492390E+02  0.0000000000E+00 0. 9.
      21   -1    0    0  103  104  0.0000000000E+00  0.0000000000E+00 -3.5537421663E+02  3.5537421663E+02  0.0000000000E+00 0. 9.
 1000006    1    1    2  101    0 -5.4496758508E+01 -2.1646133673E+01 -1.9436913940E+02  2.8498739295E+02  2.0000000000E+02 0. 9.
-1000006    1    1    2    0  104  5.9665308705E+01  5.8944018260E+01  3.7918143890E+01  2.2016387530E+02  2.0000000000E+02 0. 9.
      21    1    1    2  103  102 -5.1685501970E+00 -3.7297884586E+01 -1.0148297217E+01  3.8997872277E+01  0.0000000000E+00 0. 9.
#  0.2100005E+03  0.2100005E+03  0.3765430E+02
# model T2tt_200_0  18.5245 
</event>
<event>
     4     7  1.000000E+00  2.181095E+02  7.957747E-02  1.142022E-01
      21    -1    0    0  101  102  0.0000000000E+00  0.0000000000E+00  4.6252129148E+01  4.6252129148E+01  0.0000000000E+00 0. 9.
      21   -1    0    0  103  101  0.0000000000E+00  0.0000000000E+00 -1.0599464530E+03  1.0599464530E+03  0.0000000000E+00 0. 9.
 1000006    1    1    2  103    0  5.9482299687E+01  6.3510591133E+01 -4.1162583717E+02  4.6584071203E+02  2.0000000000E+02 0. 9.
-1000006    1    1    2    0  102 -5.9482299687E+01 -6.3510591133E+01 -6.0206848669E+02  6.4035787013E+02  2.0000000000E+02 0. 9.
#  0.2181095E+03  0.2181095E+03
# model T2tt_200_0  18.5245 
</event>
<event>
     6     4  1.000000E+00  2.424261E+02  7.957747E-02  1.125445E-01
      21    -1    0    0  101  102  0.0000000000E+00  0.0000000000E+00  4.9061157693E+02  4.9061157693E+02  0.0000000000E+00 0. 9.
      21   -1    0    0  103  104  0.0000000000E+00  0.0000000000E+00 -1.9094468852E+02  1.9094468852E+02  0.0000000000E+00 0. 9.
 1000006    1    1    2  101    0 -9.2606268367E+01 -5.0696439800E+00  1.5104366531E+02  2.6723736838E+02  2.0000000000E+02 0. 9.
-1000006    1    1    2    0  104  1.8551671517E+02 -2.7405816631E+00  1.2993276835E+02  3.0216963231E+02  2.0000000000E+02 0. 9.
      21    1    1    2  103  105 -4.3586966794E+01  1.6197585368E+01 -1.8255800547E+01  4.9954576364E+01  0.0000000000E+00 0. 9.
      21    1    1    2  105  102 -4.9323480013E+01 -8.3873597247E+00  3.6946255305E+01  6.2194688397E+01  0.0000000000E+00 0. 9.
#  0.2424261E+03  0.2424261E+03  0.4649931E+02  0.5330461E+02
# model T2tt_200_0  18.5245 
</event>
</LesHouchesEvents>
