<LesHouchesEvents version="1.0">
<header>
<!--
#*********************************************************************
#                                                                    *
#                       MadGraph/MadEvent                            *
#                                                                    *
#                      The new web generation                        *
#                                                                    *
#                   http://madgraph.hep.uiuc.edu                     *
#                   http://madgraph.phys.ucl.ac.be                   *
#                   http://madgraph.roma2.infn.it                    *
#                                                                    *
#            CP3 team                      Tim Stelzer               *
#      Universite de Louvain          University of Illinois         *
#                                                                    *
#....................................................................*
#                                                                    *
# This file contains all the information necessary to reproduce      *
# the events generated:                                              *
#                                                                    *
# 1. software version                                                *
# 2. proc_card.dat      : code generation info including model       *
# 3. param_card.dat     : model primary parameters in the LH format  *
# 4. run_card.dat       : running parameters (collider and cuts)     *
# 5. pythia_card.dat    : present only in the pythia event file      *
# 6. pgs_card.dat       : present only in the pgs event file         *
#                                                                    *
#                                                                    *
#*********************************************************************
-->
<MGVersion>
# MG/ME version    : 4.2.9
# madgraph version : 4.2.5
# template version : 2.2.3
# helas version    : 3.3
# model version    : sm_1.1
</MGVersion>
<MGProcCard>
#*********************************************************************
#                        MadGraph/MadEvent                           *
#                   http://madgraph.hep.uiuc.edu                     *
#                                                                    *
#                          proc_card.dat                             *
#                                                                    *
# This file is used to generate the code for a specific process.     *
# Some notation/conventions:                                         *
#                                                                    *
# 0. Do not modify the TAGS and their order.                         *
# 1. hash/pound is a comment.                                        *
# 2. The charcter after the @ is used as an identifier for the class *
#    of processes. It can be a single or a digit.                    *
# 3. The number of lines for the max couplings depends on how many   *
#    different classes of couplings are present in the model         *
#    In the SM these are just two: QED (which include EW) and QCD    *
# 4. Write "end_coup" after  the couplings list,                     *
#    to tell MG that the couplings input is over.                    *
# 5. Write "done" after the proc list to                             *
#    to tell MG that the proc input is over.                         *
# 6. Some model names available at present are:                      *
#    sm     =  Standard Model                                        *
#    sm_ckm =  Standard Model with Cabibbo matrix                    *
#    mssm   =  Minimal Supersymmetric Standard Model                 *
#    2hdm   =  Generic Two Higgs Doublet model                       *
#    heft   =  Higgs EFT (+Standard Model)                           *
#    usrmod =  User Model                                            *
# 7. Don't leave spaces between the particles name in the            *
#    definition of the multiparticles.                               *
#*********************************************************************
#*********************************************************************
# Process(es) requested : mg2 input                                  *
#*********************************************************************
# Begin PROCESS # This is TAG. Do not modify this line
pp>tt~ @0  #  Process 
QCD=2   # max qcd order
QED=0   # max qed order
end_coup   # the coupling list is over
pp>tt~j  @1 #  Process 
QCD=3   # max qcd order
QED=0   # max qed order
end_coup   # the coupling list is over
pp>tt~jj @2  #  Process 
QCD=4   # max qcd order
QED=0   # max qed order
end_coup   # the coupling list is over
pp>tt~jjj @3  #  Process 
QCD=5   # max qcd order
QED=0   # max qed order
end_coup   # the coupling list is over
done       # the process list is over
# End PROCESS  # This is TAG. Do not modify this line
#*********************************************************************
# Model information                                                  *
#*********************************************************************
# Begin MODEL  # This is TAG. Do not modify this line
smzerobmass 
# End   MODEL  # This is TAG. Do not modify this line
#*********************************************************************
# Start multiparticle definitions                                    *
#*********************************************************************
# Begin MULTIPARTICLES # This is TAG. Do not modify this line
p uu~dd~ss~cc~bb~g 
j uu~dd~ss~cc~bb~g
l+ e+mu+ 
l- e-mu- 
vl vevm 
vl~ ve~vm~
# End  MULTIPARTICLES # This is TAG. Do not modify this line
</MGProcCard>
<slha>
#******************************************************************
#                      MadGraph/MadEvent                          *
#******************************************************************
#   Les Houches friendly file for the SM parameters of MadGraph   *
#        Spectrum and decay widths produced by SMCalc             *
#******************************************************************
#*Please note the following IMPORTANT issues:                     *
#                                                                 *
#0. REFRAIN from editing this file by hand! Some of the parame-   *
#   ters are not independent                                      *
#   (such as G_Fermi, alpha_em, sin(theta_W),MZ,MW) and serious   *
#   problems might be encountered (such as violation of unitarity *
#   or gauge invariance).  Always use a calculator.               *
#                                                                 *
#1. alpha_S(MZ) has been used in the calculation of the parameters*
#   but, for consistency, it will be reset by madgraph to the     *
#   value expected IF the pdfs for collisions with hadrons are    *
#   used. This value is KEPT by madgraph when no pdf are used     *
#   lpp(i)=0 .                                                    *
#                                                                 *
#2. Values of the charm and bottom kinematic (pole) masses are    *
#   those used in the matrix elements and phase space UNLESS they *
#   are set to ZERO from the start in the model (particles.dat)   *
#   This happens, for example,  when using 5-flavor QCD where     *
#   charm and bottom are treated as partons in the initial state  *
#   and a zero mass might be hardwired in the model definition.   *
#                                                                 *
#******************************************************************
Block SMINPUTS      # Standard Model inputs
    1         1.32350785E+02   # alpha_em(MZ)(-1) SM MSbar
    2         1.16639000E-05   # G_Fermi
    3         1.18000000E-01   # alpha_s(MZ) SM MSbar
    4         9.11880000E+01   # Z mass (as input parameter)
Block MGYUKAWA     # Yukawa masses m/v=y/sqrt(2)
#    PDG          YMASS
    5         4.20000000E+00   # mbottom for the Yukawa  y_b
    4         1.42000000E+00   # mcharm  for the Yukawa  y_c
    6         1.64500000E+02   # mtop    for the Yukawa  y_t
   15         1.77700000E+00   # mtau    for the Yukawa  y_ta
Block MGCKM     # CKM elements for MadGraph
    1   1     9.75000000E-01   # Vud for Cabibbo matrix
Block MASS      #  Mass spectrum (kinematic masses)
#       PDG       Mass
        5     4.70000000E+00   # bottom   pole mass
        6     1.70900000E+02   # top      pole mass
       15     1.77700000E+00   # tau      mass
       23     9.11880000E+01   # Z        mass
       24     8.04000000E+01   # W        mass
       25     1.20000000E+02   # H        mass
#            PDG       Width
DECAY         6     1.40736322E+00   # top width
DECAY        23     2.44041149E+00   # Z   width
DECAY        24     2.04614832E+00   # W   width
DECAY        25     5.75450381E-03   # H   width
#        BR           NDA        ID1       ID2
    8.27247499E-02    2           4        -4   # BR( H -> c  cbar  )
    7.17633150E-01    2           5        -5   # BR( H -> b  bbar  )
    0.00000000E+00    2           6        -6   # BR( H -> t  tbar  )
    4.31613962E-02    2          15       -15   # BR( H -> tau- tau+)
    6.90147194E-03    2          23        23   # BR( H -> Z   Z^(*))
    7.47460022E-02    2          24       -24   # BR( H -> W   W^(*))
    3.02414236E-02    2          21        21   # BR( H -> g   g    )
    1.43040946E-03    2          22        22   # BR( H -> A   A    )
</slha>
<MGRunCard>
#*********************************************************************
#                       MadGraph/MadEvent                            *
#                  http://madgraph.hep.uiuc.edu                      *
#                                                                    *
#                        run_card.dat                                *
#                                                                    *
#  This file is used to set the parameters of the run.               *
#                                                                    *
#  Some notation/conventions:                                        *
#                                                                    *
#   Lines starting with a '# ' are info or comments                  *
#                                                                    *
#   mind the format:   value    = variable     ! comment             *
#*********************************************************************
#
#*******************                                                 
# Running parameters
#*******************                                                 
#                                                                    
#*********************************************************************
# Tag name for the run (one word)                                    *
#*********************************************************************
  'fermi'     = run_tag ! name of the run 
#*********************************************************************
# Run to generate the grid pack                                      *
#*********************************************************************
  .true.     = gridpack  !True = setting up the grid pack
#*********************************************************************
# Number of events and rnd seed                                      *
#*********************************************************************
  10000       = nevents ! Number of unweighted events requested 
     153 = iseed   ! rnd seed (0=assigned automatically=default))
#*********************************************************************
# Collider type and energy                                           *
#*********************************************************************
        1     = lpp1  ! beam 1 type (0=NO PDF)
        1     = lpp2  ! beam 2 type (0=NO PDF)
     5000     = ebeam1  ! beam 1 energy in GeV
     5000     = ebeam2  ! beam 2 energy in GeV
#*********************************************************************
# Beam polarization from -100 (left-handed) to 100 (right-handed)    *
#*********************************************************************
        0     = polbeam1 ! beam polarization for beam 1
        0     = polbeam2 ! beam polarization for beam 2
#*********************************************************************
# PDF CHOICE: this automatically fixes also alpha_s and its evol.    *
#*********************************************************************
 'cteq6l1'    = pdlabel     ! PDF set                                     
#*********************************************************************
# Renormalization and factorization scales                           *
#*********************************************************************
 F        = fixed_ren_scale  ! if .true. use fixed ren scale
 F        = fixed_fac_scale  ! if .true. use fixed fac scale
 91.1880  = scale            ! fixed ren scale
 91.1880  = dsqrt_q2fact1    ! fixed fact scale for pdf1
 91.1880  = dsqrt_q2fact2    ! fixed fact scale for pdf2
 1        = scalefact        ! scale factor for event-by-event scales
#*********************************************************************
# Matching - Warning! ickkw > 0 is still beta
#*********************************************************************
 1        = ickkw            ! 0 no matching, 1 MLM, 2 CKKW matching
#*********************************************************************
#                                                                    
#**********************************
# BW cutoff (M+/-bwcutoff*Gamma)
#**********************************
  5  = bwcutoff
#*******************                                                 
# Standard Cuts
#*******************                                                 
#                                                                    
#*********************************************************************
# Minimum and maximum pt's                                           *
#*********************************************************************
 20  = ptj       ! minimum pt for the jets 
 20  = ptb       ! minimum pt for the b 
  0  = pta       ! minimum pt for the photons 
  0  = ptl       ! minimum pt for the charged leptons 
  0  = misset    ! minimum missing Et (sum of neutrino's momenta)
  0  = ptheavy   ! minimum pt for one heavy final state
 1d5 = ptjmax    ! maximum pt for the jets
 1d5 = ptbmax    ! maximum pt for the b
 1d5 = ptamax    ! maximum pt for the photons
 1d5 = ptlmax    ! maximum pt for the charged leptons
 1d5 = missetmax ! maximum missing Et (sum of neutrino's momenta)
#*********************************************************************
# Minimum and maximum E's (in the lab frame)                         *
#*********************************************************************
  0  = ej     ! minimum E for the jets 
  0  = eb     ! minimum E for the b 
  0  = ea     ! minimum E for the photons 
  0  = el     ! minimum E for the charged leptons 
 1d5  = ejmax ! maximum E for the jets
 1d5  = ebmax ! maximum E for the b
 1d5  = eamax ! maximum E for the photons
 1d5  = elmax ! maximum E for the charged leptons
#*********************************************************************
# Maximum and minimum rapidity                                       *
#*********************************************************************
 5d0  = etaj    ! max rap for the jets 
 5d0  = etab    ! max rap for the b 
 2d5  = etaa    ! max rap for the photons 
 2d5  = etal    ! max rap for the charged leptons 
 0d0  = etajmin ! min rap for the jets
 0d0  = etabmin ! min rap for the b
 0d0  = etaamin ! min rap for the photons
 0d0  = etalmin ! main rap for the charged leptons
#*********************************************************************
# Minimum and maximum DeltaR distance                                *
#*********************************************************************
 0.001 = drjj    ! min distance between jets 
 0.001   = drbb    ! min distance between b's 
 0   = drll    ! min distance between leptons 
 0   = draa    ! min distance between gammas 
 0.001   = drbj    ! min distance between b and jet 
 0   = draj    ! min distance between gamma and jet 
 0   = drjl    ! min distance between jet and lepton 
 0   = drab    ! min distance between gamma and b 
 0   = drbl    ! min distance between b and lepton 
 0   = dral    ! min distance between gamma and lepton 
 1d2 = drjjmax ! max distance between jets
 1d2 = drbbmax ! max distance between b's
 1d2 = drllmax ! max distance between leptons
 1d2 = draamax ! max distance between gammas
 1d2 = drbjmax ! max distance between b and jet
 1d2 = drajmax ! max distance between gamma and jet
 1d2 = drjlmax ! max distance between jet and lepton
 1d2 = drabmax ! max distance between gamma and b
 1d2 = drblmax ! max distance between b and lepton
 1d2 = dralmax ! maxdistance between gamma and lepton
#*********************************************************************
# Minimum and maximum invariant mass for pairs                       *
#*********************************************************************
 0   = mmjj    ! min invariant mass of a jet pair 
 0   = mmbb    ! min invariant mass of a b pair 
 0   = mmaa    ! min invariant mass of gamma gamma pair
 0   = mmll    ! min invariant mass of l+l- (same flavour) lepton pair
 1d5 = mmjjmax ! max invariant mass of a jet pair
 1d5 = mmbbmax ! max invariant mass of a b pair
 1d5 = mmaamax ! max invariant mass of gamma gamma pair
 1d5 = mmllmax ! max invariant mass of l+l- (same flavour) lepton pair
#*********************************************************************
# Minimum and maximum invariant mass for all letpons                 *
#*********************************************************************
 0   = mmnl    ! min invariant mass for all letpons (l+- and vl) 
 1d5 = mmnlmax ! max invariant mass for all letpons (l+- and vl) 
#*********************************************************************
# Inclusive cuts                                                     *
#*********************************************************************
 0  = xptj ! minimum pt for at least one jet  
 0  = xptb ! minimum pt for at least one b 
 0  = xpta ! minimum pt for at least one photon 
 0  = xptl ! minimum pt for at least one charged lepton 
#*********************************************************************
# Control the pt's of the jets sorted by pt                          *
#*********************************************************************
 0   = ptj1min ! minimum pt for the leading jet in pt
 0   = ptj2min ! minimum pt for the second jet in pt
 0   = ptj3min ! minimum pt for the third jet in pt
 0   = ptj4min ! minimum pt for the fourth jet in pt
 1d5 = ptj1max ! maximum pt for the leading jet in pt 
 1d5 = ptj2max ! maximum pt for the second jet in pt
 1d5 = ptj3max ! maximum pt for the third jet in pt
 1d5 = ptj4max ! maximum pt for the fourth jet in pt
 0   = cutuse  ! reject event if fails any (0) / all (1) jet pt cuts
#*********************************************************************
# Control the Ht(k)=Sum of k leading jets                            *
#*********************************************************************
 0   = htjmin ! minimum jet HT=Sum(jet pt)
 1d5 = htjmax ! maximum jet HT=Sum(jet pt)
 0   = ht2min ! minimum Ht for the two leading jets
 0   = ht3min ! minimum Ht for the three leading jets
 0   = ht4min ! minimum Ht for the four leading jets
 1d5 = ht2max ! maximum Ht for the two leading jets
 1d5 = ht3max ! maximum Ht for the three leading jets
 1d5 = ht4max ! maximum Ht for the four leading jets
#*********************************************************************
# WBF cuts                                                           *
#*********************************************************************
 0   = xetamin ! minimum rapidity for two jets in the WBF case  
 0   = deltaeta ! minimum rapidity for two jets in the WBF case 
#*********************************************************************
# maximal pdg code for quark to be considered as a jet               *
# otherwise b cuts are applied                                       *
#*********************************************************************
 5 = maxjetflavor
#*********************************************************************
# Jet measure cuts                                                   *
#*********************************************************************
 20   = xqcut   ! minimum kt jet measure between partons
#*********************************************************************
</MGRunCard>
<MGGridCard>
#*********************************************************************
#                       MadGraph/MadEvent                            *
#                  http://madgraph.hep.uiuc.edu                      *
#                                                                    *
#                        grid_card.dat                               *
#                                                                    *
#  This file is used to set the parameters of the run.               *
#                                                                    *
#  Some notation/conventions:                                        *
#                                                                    *
#   Lines starting with a '# ' are info or comments                  *
#                                                                    *
#   mind the format:   value    = variable     ! comment             *
#*********************************************************************
#
#*******************                                                 
# Running parameters
#*******************                                                 
#
#*********************************************************************
#  Tell if this is a grid run or not, false during warm-up on the    *
#  cluster, automatically set to true after warm-up and the gridpack *
#  is ready. The user should not change this.                        *
#*********************************************************************
  .true.  =  GridRun   !True = Runs in the grid mode
#*********************************************************************
# Number of events and rnd seed                                      *
#*********************************************************************
  20 = gevents ! Number of unweighted events requested 
  50 = gseed   ! rnd seed
    -1       = ngran   ! Granularity (minimum # events per channel)
#*********************************************************************
</MGGridCard>
<MGGenerationInfo>
#  Number of Events        :         122
#  Integrated weight (pb)  :  .14755E+04
#  Max wgt                 :  .73264E+00
#  Average wgt             :  .12094E+02
</MGGenerationInfo>
<MGParamCMS>
# All parameters that are given here can be selected to be set from this
# header by setting the # corresponding CMSSW config parameter to -1
# In case this is done, the entries here must exist of an error message
# is given.
      0      = minjets ! Smallest number of additional light flavour jets
      3      = maxjets ! Largest number (inclusive ktMLM matching multipl.)
</MGParamCMS>
</header>
<init>
  2212  2212  0.50000000000E+04  0.50000000000E+04 0 0 10042 10042 3  3
  0.16932125000E+03  0.17343934426E+00  0.73263561074E+00   0
  0.87079500000E+03  0.89197377049E+00  0.73263561074E+00   1
  0.43539750000E+03  0.44598688525E+00  0.73263561074E+00   2
</init>
<event>
 5   1  0.1000000E+01  0.1726545E+03  0.7555679E-02  0.1180465E+00
       21   -1    0    0  501  502  0.00000000000E+00  0.00000000000E+00  0.18688742027E+03  0.18688742027E+03  0.00000000000E+00 0.  1.
        2   -1    0    0  503    0  0.00000000000E+00  0.00000000000E+00 -0.59850702019E+03  0.59850702019E+03  0.00000000000E+00 0. -1.
        6    1    1    2  503    0 -0.29167810590E+02  0.43110739918E+02 -0.16218916918E+02  0.17938550760E+03  0.17090000000E+03 0.  1.
       -6    1    1    2    0  502  0.62885393833E+01 -0.12215339632E+01  0.33660478990E+02  0.17430110648E+03  0.17090000000E+03 0. -1.
        2    1    1    2  501    0  0.22879271206E+02 -0.41889205955E+02 -0.42906116200E+03  0.43170782638E+03  0.00000000000E+00 0. -1.
#  0.1726545E+03  0.1726545E+03  0.4773014E+02
# model=MadGraph_SM_170.9
</event>
<event>
 4   0  0.1000000E+01  0.2452097E+03  0.7555679E-02  0.1123683E+00
       21   -1    0    0  502  503  0.00000000000E+00  0.00000000000E+00  0.23825062552E+03  0.23825062552E+03  0.00000000000E+00 0. -1.
       21   -1    0    0  501  502  0.00000000000E+00  0.00000000000E+00 -0.28126024235E+03  0.28126024235E+03  0.00000000000E+00 0.  1.
        6    1    1    2  501    0  0.17314768866E+03  0.30673797762E+02 -0.10475211149E+03  0.26664736792E+03  0.17090000000E+03 0. -1.
       -6    1    1    2    0  503 -0.17314768866E+03 -0.30673797762E+02  0.61742494657E+02  0.25286349994E+03  0.17090000000E+03 0. -1.
#  0.2452097E+03  0.2452097E+03
# model=MadGraph_SM_170.9
</event>
<event>
 5   1  0.1000000E+01  0.2026938E+03  0.7555679E-02  0.1153807E+00
       21   -1    0    0  501  502  0.00000000000E+00  0.00000000000E+00  0.22079880529E+03  0.22079880529E+03  0.00000000000E+00 0.  1.
       21   -1    0    0  502  503  0.00000000000E+00  0.00000000000E+00 -0.16743514974E+03  0.16743514974E+03  0.00000000000E+00 0. -1.
        6    1    1    2  501    0 -0.57919885743E+02  0.11462218883E+02  0.39434481632E+02  0.18506210841E+03  0.17090000000E+03 0. -1.
       -6    1    1    2    0  504  0.35554739982E+02 -0.18495881381E+02  0.24887914281E+02  0.17729200614E+03  0.17090000000E+03 0.  1.
       21    1    1    2  504  503  0.22365145761E+02  0.70336624985E+01 -0.10958740359E+02  0.25879840481E+02  0.00000000000E+00 0.  1.
#  0.1808118E+03  0.2026938E+03  0.2296504E+02
# model=MadGraph_SM_170.9
</event>
<event>
 5   1  0.1000000E+01  0.2203645E+03  0.7555679E-02  0.1140387E+00
       21   -1    0    0  501  502  0.00000000000E+00  0.00000000000E+00  0.14689037039E+03  0.14689037039E+03  0.00000000000E+00 0.  1.
        2   -1    0    0  503    0  0.00000000000E+00  0.00000000000E+00 -0.14258460074E+04  0.14258460074E+04  0.00000000000E+00 0. -1.
        6    1    1    2  503    0  0.12003140999E+03 -0.40064525567E+02 -0.41294533627E+02  0.21662122264E+03  0.17090000000E+03 0.  1.
       -6    1    1    2    0  502 -0.13637720574E+03  0.96899446318E+02 -0.18646303474E+03  0.30325487344E+03  0.17090000000E+03 0.  1.
        2    1    1    2  501    0  0.16345795756E+02 -0.56834920751E+02 -0.10511980687E+04  0.10528602818E+04  0.00000000000E+00 0. -1.
#  0.2203645E+03  0.2203645E+03  0.5913876E+02
# model=MadGraph_SM_170.9
</event>
<event>
 4   0  0.1000000E+01  0.1709358E+03  0.7555679E-02  0.1182169E+00
       21   -1    0    0  501  502  0.00000000000E+00  0.00000000000E+00  0.95088365628E+03  0.95088365628E+03  0.00000000000E+00 0.  1.
       21   -1    0    0  502  503  0.00000000000E+00  0.00000000000E+00 -0.30973015669E+02  0.30973015669E+02  0.00000000000E+00 0.  1.
        6    1    1    2  501    0 -0.19396520294E+01 -0.29137443275E+01  0.50359031609E+03  0.53181036903E+03  0.17090000000E+03 0.  1.
       -6    1    1    2    0  503  0.19396520294E+01  0.29137443275E+01  0.41632032452E+03  0.45004630291E+03  0.17090000000E+03 0.  1.
#  0.1709358E+03  0.1709358E+03
# model=MadGraph_SM_170.9
</event>
<event>
 6   2  0.1000000E+01  0.2563665E+03  0.7555679E-02  0.1116870E+00
       21   -1    0    0  503  504  0.00000000000E+00  0.00000000000E+00  0.63956900290E+03  0.63956900290E+03  0.00000000000E+00 0.  1.
       21   -1    0    0  501  502  0.00000000000E+00  0.00000000000E+00 -0.10256159666E+04  0.10256159666E+04  0.00000000000E+00 0.  1.
        6    1    1    2  501    0  0.12336430328E+03 -0.13752321206E+03 -0.23497314901E+03  0.34431174237E+03  0.17090000000E+03 0.  1.
       -6    1    1    2    0  505 -0.10558108468E+03  0.98452138315E+02  0.21051339817E+03  0.30718543225E+03  0.17090000000E+03 0.  1.
       21    1    1    2  503  502  0.25339364831E+02 -0.57333525193E+01 -0.68442377984E+03  0.68491668482E+03  0.00000000000E+00 0. -1.
       21    1    1    2  505  504 -0.43122583436E+02  0.44804426261E+02  0.32283656699E+03  0.32877111005E+03  0.00000000000E+00 0.  1.
#  0.2563665E+03  0.2563665E+03  0.6199640E+02  0.2597989E+02
# model=MadGraph_SM_170.9
</event>
<event>
 6   2  0.1000000E+01  0.3424755E+03  0.7555679E-02  0.1074465E+00
        2   -1    0    0  504    0  0.00000000000E+00  0.00000000000E+00  0.16203987193E+04  0.16203987193E+04  0.00000000000E+00 0.  1.
       21   -1    0    0  501  502  0.00000000000E+00  0.00000000000E+00 -0.62102571788E+03  0.62102571788E+03  0.00000000000E+00 0.  1.
        6    1    1    2  503    0  0.16436891470E+03  0.27629490826E+03  0.20457347084E+03  0.41762798209E+03  0.17090000000E+03 0.  1.
       -6    1    1    2    0  502 -0.13418473460E+03 -0.25977810290E+03 -0.45088175524E+03  0.56390723789E+03  0.17090000000E+03 0.  1.
        2    1    1    2  501    0 -0.98242690763E+02 -0.60054240969E+01  0.99707021630E+03  0.10019165173E+04  0.00000000000E+00 0.  1.
       21    1    1    2  504  503  0.68058510668E+02 -0.10511381271E+02  0.24861106949E+03  0.25797269988E+03  0.00000000000E+00 0. -1.
#  0.3424755E+03  0.3424755E+03  0.5038078E+02  0.6886545E+02
# model=MadGraph_SM_170.9
</event>
<event>
 6   2  0.1000000E+01  0.3196951E+03  0.7555679E-02  0.1084250E+00
       21   -1    0    0  501  502  0.00000000000E+00  0.00000000000E+00  0.51806964570E+03  0.51806964570E+03  0.00000000000E+00 0. -1.
       21   -1    0    0  503  504  0.00000000000E+00  0.00000000000E+00 -0.27872863662E+03  0.27872863662E+03  0.00000000000E+00 0.  1.
        6    1    1    2  501    0  0.27666806900E+03  0.96923257149E+02  0.11677904120E+03  0.35886417019E+03  0.17090000000E+03 0. -1.
       -6    1    1    2    0  505 -0.23930085036E+03 -0.68095575135E+02  0.11790227001E+03  0.32405193968E+03  0.17090000000E+03 0.  1.
       21    1    1    2  505  504 -0.35001607000E+02  0.28452991845E+02 -0.22542220012E+02  0.50426549759E+02  0.00000000000E+00 0.  1.
       21    1    1    2  503  502 -0.23656116456E+01 -0.57280673860E+02  0.27201917885E+02  0.63455622705E+02  0.00000000000E+00 0.  1.
#  0.3196951E+03  0.3196951E+03  0.5537638E+02  0.4510749E+02
# model=MadGraph_SM_170.9
</event>
<event>
 6   2  0.1000000E+01  0.1933902E+03  0.7555679E-02  0.1161490E+00
        2   -1    0    0  504    0  0.00000000000E+00  0.00000000000E+00  0.16276753117E+04  0.16276753117E+04  0.00000000000E+00 0.  1.
       21   -1    0    0  503  504  0.00000000000E+00  0.00000000000E+00 -0.37999520811E+03  0.37999520811E+03  0.00000000000E+00 0.  1.
        6    1    1    2  503    0 -0.62579671300E+02 -0.20414389214E+02 -0.12503828232E+03  0.22175289083E+03  0.17090000000E+03 0.  1.
       -6    1    1    2    0  502  0.43690425095E+02  0.13883954517E+03 -0.14232910873E+03  0.26580003337E+03  0.17090000000E+03 0. -1.
        2    1    1    2  501    0  0.13618347171E+02 -0.59497408804E+02  0.95651283967E+03  0.95845824817E+03  0.00000000000E+00 0.  1.
       21    1    1    2  502  501  0.52708990335E+01 -0.58927747151E+02  0.55853465498E+03  0.56165934745E+03  0.00000000000E+00 0.  1.
#  0.1933902E+03  0.1933902E+03  0.1240508E+03  0.3124678E+02
# model=MadGraph_SM_170.9
</event>
<event>
 5   1  0.1000000E+01  0.1772230E+03  0.7555679E-02  0.1176041E+00
       21   -1    0    0  501  502  0.00000000000E+00  0.00000000000E+00  0.10683660620E+04  0.10683660620E+04  0.00000000000E+00 0. -1.
       21   -1    0    0  503  504  0.00000000000E+00  0.00000000000E+00 -0.21775024403E+03  0.21775024403E+03  0.00000000000E+00 0. -1.
        6    1    1    2  501    0  0.25267491460E+02 -0.13177960237E+03  0.99613065018E+02  0.23902694921E+03  0.17090000000E+03 0. -1.
       -6    1    1    2    0  504  0.33404509814E+02  0.26641281175E+02  0.86411591471E+03  0.88188930326E+03  0.17090000000E+03 0. -1.
       21    1    1    2  503  502 -0.58672001275E+02  0.10513832120E+03 -0.11311316179E+03  0.16520005354E+03  0.00000000000E+00 0. -1.
#  0.1772230E+03  0.1772230E+03  0.1204013E+03
# model=MadGraph_SM_170.9
</event>
<event>
 5   1  0.1000000E+01  0.1791119E+03  0.7555679E-02  0.1174255E+00
       21   -1    0    0  503  504  0.00000000000E+00  0.00000000000E+00  0.40949949764E+03  0.40949949764E+03  0.00000000000E+00 0. -1.
       21   -1    0    0  501  502  0.00000000000E+00  0.00000000000E+00 -0.51346541547E+03  0.51346541547E+03  0.00000000000E+00 0. -1.
        6    1    1    2  501    0 -0.34112751571E+02 -0.83089697427E+02  0.75365686244E+02  0.20725437101E+03  0.17090000000E+03 0.  1.
       -6    1    1    2    0  504  0.58130715615E+02 -0.12453329403E+02  0.23116301472E+03  0.29355990000E+03  0.17090000000E+03 0. -1.
       21    1    1    2  503  502 -0.24017964044E+02  0.95543026829E+02 -0.41049461880E+03  0.42215064211E+03  0.00000000000E+00 0. -1.
#  0.1791119E+03  0.1791119E+03  0.9851565E+02
# model=MadGraph_SM_170.9
</event>
<event>
 6   2  0.1000000E+01  0.2179310E+03  0.7555679E-02  0.1142152E+00
       21   -1    0    0  501  502  0.00000000000E+00  0.00000000000E+00  0.27595750528E+03  0.27595750528E+03  0.00000000000E+00 0. -1.
       21   -1    0    0  502  503  0.00000000000E+00  0.00000000000E+00 -0.36546849654E+03  0.36546849654E+03  0.00000000000E+00 0. -1.
        6    1    1    2  501    0  0.11607081045E+03 -0.10718666952E+03 -0.10301222932E+03  0.25451865266E+03  0.17090000000E+03 0. -1.
       -6    1    1    2    0  505 -0.52108141044E+02  0.13191733333E+03  0.70551770810E+02  0.23302747383E+03  0.17090000000E+03 0. -1.
       21    1    1    2  504  503 -0.28547760166E+02  0.30778757724E+02 -0.74720400215E+02  0.85705570098E+02  0.00000000000E+00 0. -1.
       21    1    1    2  505  504 -0.35414909241E+02 -0.55509421541E+02  0.17669867468E+02  0.68174305223E+02  0.00000000000E+00 0. -1.
#  0.2179310E+03  0.2179310E+03  0.6500639E+02  0.4197983E+02
# model=MadGraph_SM_170.9
</event>
<event>
 5   1  0.1000000E+01  0.1835643E+03  0.7555679E-02  0.1170138E+00
        2   -1    0    0  503    0  0.00000000000E+00  0.00000000000E+00  0.20091721901E+03  0.20091721901E+03  0.00000000000E+00 0.  1.
       21   -1    0    0  502  503  0.00000000000E+00  0.00000000000E+00 -0.24772486966E+03  0.24772486966E+03  0.00000000000E+00 0.  1.
        6    1    1    2  502    0 -0.51138094158E+02 -0.49409407617E+02  0.21275998251E+02  0.18632195882E+03  0.17090000000E+03 0.  1.
       -6    1    1    2    0  501  0.62615754316E+02  0.23485291075E+02 -0.10831766926E+03  0.21310049052E+03  0.17090000000E+03 0.  1.
        2    1    1    2  501    0 -0.11477660158E+02  0.25924116543E+02  0.40234020368E+02  0.49219639334E+02  0.00000000000E+00 0.  1.
#  0.1835643E+03  0.1835643E+03  0.2835131E+02
# model=MadGraph_SM_170.9
</event>
<event>
 6   2  0.1000000E+01  0.3526097E+03  0.7555679E-02  0.1070373E+00
       21   -1    0    0  503  504  0.00000000000E+00  0.00000000000E+00  0.35392096379E+03  0.35392096379E+03  0.00000000000E+00 0. -1.
        1   -1    0    0  504    0  0.00000000000E+00  0.00000000000E+00 -0.17273174508E+04  0.17273174508E+04  0.00000000000E+00 0. -1.
        6    1    1    2  503    0  0.15685307427E+02  0.30837578789E+03  0.20648223625E+03  0.40888064189E+03  0.17090000000E+03 0. -1.
       -6    1    1    2    0  502 -0.59424231343E+02 -0.30292021639E+03 -0.68233501107E+03  0.76816650155E+03  0.17090000000E+03 0.  1.
        1    1    1    2  501    0  0.14610293768E+02  0.30734479167E+02 -0.71565170260E+03  0.71646034665E+03  0.00000000000E+00 0. -1.
       21    1    1    2  502  501  0.29128630147E+02 -0.36190050669E+02 -0.18189200956E+03  0.18773092448E+03  0.00000000000E+00 0. -1.
#  0.3526097E+03  0.3526097E+03  0.3403041E+02  0.4411213E+02
# model=MadGraph_SM_170.9
</event>
<event>
 6   2  0.1000000E+01  0.1724735E+03  0.7555679E-02  0.1180643E+00
       21   -1    0    0  501  502  0.00000000000E+00  0.00000000000E+00  0.10135713283E+03  0.10135713283E+03  0.00000000000E+00 0.  1.
        2   -1    0    0  504    0  0.00000000000E+00  0.00000000000E+00 -0.10125209188E+04  0.10125209188E+04  0.00000000000E+00 0.  1.
        6    1    1    2  503    0 -0.24565566744E+02 -0.56993387183E+01 -0.88964921638E+02  0.19431293527E+03  0.17090000000E+03 0. -1.
       -6    1    1    2    0  502  0.16237129569E+02 -0.29247692259E+02 -0.11477385595E+03  0.20856394676E+03  0.17090000000E+03 0.  1.
        2    1    1    2  501    0  0.26504828709E+02 -0.17674954911E+01 -0.39650070470E+03  0.39738953033E+03  0.00000000000E+00 0.  1.
       21    1    1    2  504  503 -0.18176391535E+02  0.36714526468E+02 -0.31092430370E+03  0.31361163929E+03  0.00000000000E+00 0.  1.
#  0.1724735E+03  0.1724735E+03  0.2656370E+02  0.3612902E+02
# model=MadGraph_SM_170.9
</event>
<event>
 4   0  0.1000000E+01  0.1978499E+03  0.7555679E-02  0.1157749E+00
       21   -1    0    0  502  503  0.00000000000E+00  0.00000000000E+00  0.13167373264E+03  0.13167373264E+03  0.00000000000E+00 0.  1.
       21   -1    0    0  501  502  0.00000000000E+00  0.00000000000E+00 -0.30283148460E+03  0.30283148460E+03  0.00000000000E+00 0.  1.
        6    1    1    2  501    0  0.67179120297E+02 -0.73652907731E+02 -0.11498125604E+03  0.22883462208E+03  0.17090000000E+03 0.  1.
       -6    1    1    2    0  503 -0.67179120297E+02  0.73652907731E+02 -0.56176495915E+02  0.20567059516E+03  0.17090000000E+03 0.  1.
#  0.1978499E+03  0.1978499E+03
# model=MadGraph_SM_170.9
</event>
<event>
 6   2  0.1000000E+01  0.1938877E+03  0.7555679E-02  0.1161068E+00
       21   -1    0    0  504  505  0.00000000000E+00  0.00000000000E+00  0.11623755913E+03  0.11623755913E+03  0.00000000000E+00 0.  1.
       21   -1    0    0  502  503  0.00000000000E+00  0.00000000000E+00 -0.71004598714E+03  0.71004598714E+03  0.00000000000E+00 0.  1.
        6    1    1    2  501    0 -0.11159239093E+03 -0.31955853380E+02 -0.33174263038E+03  0.39081200223E+03  0.17090000000E+03 0.  1.
       -6    1    1    2    0  505  0.58301548432E+02  0.35765969471E+02 -0.95867682788E+02  0.20754685670E+03  0.17090000000E+03 0.  1.
       21    1    1    2  504  503  0.32566288071E+02 -0.12623096663E+02  0.20081545990E+02  0.40288635835E+02  0.00000000000E+00 0.  1.
       21    1    1    2  502  501  0.20724554422E+02  0.88129805728E+01 -0.18627966084E+03  0.18763605151E+03  0.00000000000E+00 0. -1.
#  0.1938877E+03  0.1938877E+03  0.3524017E+02  0.2252056E+02
# model=MadGraph_SM_170.9
</event>
<event>
 5   1  0.1000000E+01  0.1931117E+03  0.7555679E-02  0.1161728E+00
       21   -1    0    0  501  502  0.00000000000E+00  0.00000000000E+00  0.34643066842E+03  0.34643066842E+03  0.00000000000E+00 0. -1.
        1   -1    0    0  503    0  0.00000000000E+00  0.00000000000E+00 -0.10543567917E+04  0.10543567917E+04  0.00000000000E+00 0.  1.
        6    1    1    2  503    0  0.28808256079E+02  0.56586829491E+02 -0.86039530703E+02  0.20159760845E+03  0.17090000000E+03 0.  1.
       -6    1    1    2    0  502 -0.10452295329E+03  0.54050449185E+01  0.25080101307E+03  0.32103305193E+03  0.17090000000E+03 0. -1.
        1    1    1    2  501    0  0.75714697210E+02 -0.61991874409E+02 -0.87268760564E+03  0.87815679972E+03  0.00000000000E+00 0.  1.
#  0.1931117E+03  0.1931117E+03  0.9785555E+02
# model=MadGraph_SM_170.9
</event>
<event>
 5   1  0.1000000E+01  0.2668752E+03  0.7555679E-02  0.1110788E+00
        2   -1    0    0  503    0  0.00000000000E+00  0.00000000000E+00  0.16195278590E+04  0.16195278590E+04  0.00000000000E+00 0. -1.
       21   -1    0    0  501  502  0.00000000000E+00  0.00000000000E+00 -0.20918231117E+03  0.20918231117E+03  0.00000000000E+00 0. -1.
        6    1    1    2  503    0 -0.10379155607E+03  0.20407404701E+03  0.46089274005E+03  0.54226177406E+03  0.17090000000E+03 0. -1.
       -6    1    1    2    0  502  0.59391115268E+02 -0.83518618131E+01 -0.10749449896E+03  0.21061561071E+03  0.17090000000E+03 0. -1.
        2    1    1    2  501    0  0.44400440806E+02 -0.19572218519E+03  0.10569473067E+04  0.10758327854E+04  0.00000000000E+00 0. -1.
#  0.2668752E+03  0.1811184E+03  0.2049770E+03
# model=MadGraph_SM_170.9
</event>
<event>
 5   1  0.1000000E+01  0.1714384E+03  0.7555679E-02  0.1181668E+00
       21   -1    0    0  501  502  0.00000000000E+00  0.00000000000E+00  0.16219330740E+03  0.16219330740E+03  0.00000000000E+00 0. -1.
       21   -1    0    0  502  503  0.00000000000E+00  0.00000000000E+00 -0.15521698491E+04  0.15521698491E+04  0.00000000000E+00 0.  1.
        6    1    1    2  501    0 -0.24737162416E+02  0.11863921802E+02  0.49918767050E+01  0.17316006664E+03  0.17090000000E+03 0.  1.
       -6    1    1    2    0  504  0.18128091551E+00  0.14482542918E+02 -0.28027265495E+02  0.17378755572E+03  0.17090000000E+03 0. -1.
       21    1    1    2  504  503  0.24555881501E+02 -0.26346464721E+02 -0.13669411529E+04  0.13674155341E+04  0.00000000000E+00 0.  1.
#  0.1714384E+03  0.1714384E+03  0.3601566E+02
# model=MadGraph_SM_170.9
</event>
<event>
 6   2  0.1000000E+01  0.1749959E+03  0.7555679E-02  0.1178179E+00
       21   -1    0    0  501  502  0.00000000000E+00  0.00000000000E+00  0.24362073937E+03  0.24362073937E+03  0.00000000000E+00 0. -1.
       21   -1    0    0  504  505  0.00000000000E+00  0.00000000000E+00 -0.10259175202E+04  0.10259175202E+04  0.00000000000E+00 0.  1.
        6    1    1    2  501    0 -0.11515077803E+01  0.85343082582E+02 -0.17408049378E+02  0.19181923235E+03  0.17090000000E+03 0. -1.
       -6    1    1    2    0  505 -0.33188271266E+02  0.17070412244E+02  0.50914229171E+02  0.18218652271E+03  0.17090000000E+03 0. -1.
       21    1    1    2  503  502 -0.57055301665E+01 -0.41482567424E+02  0.26842745172E+02  0.49738209085E+02  0.00000000000E+00 0.  1.
       21    1    1    2  504  503  0.40045309213E+02 -0.60930927402E+02 -0.84264570583E+03  0.84579429548E+03  0.00000000000E+00 0.  1.
#  0.1749959E+03  0.1749959E+03  0.4187310E+02  0.7315438E+02
# model=MadGraph_SM_170.9
</event>
<event>
 6   2  0.1000000E+01  0.2070275E+03  0.7555679E-02  0.1150381E+00
       21   -1    0    0  503  504  0.00000000000E+00  0.00000000000E+00  0.26161371630E+03  0.26161371630E+03  0.00000000000E+00 0.  1.
        2   -1    0    0  504    0  0.00000000000E+00  0.00000000000E+00 -0.54654392090E+03  0.54654392090E+03  0.00000000000E+00 0.  1.
        6    1    1    2  503    0 -0.10666006485E+02  0.12229131454E+03  0.12404696118E+03  0.24426090126E+03  0.17090000000E+03 0.  1.
       -6    1    1    2    0  502  0.14115338340E+03 -0.59200081724E+02 -0.30624660058E+03  0.38265221506E+03  0.17090000000E+03 0.  1.
        2    1    1    2  501    0 -0.83378381225E+02 -0.50892053924E+02 -0.84887704336E+02  0.12941359262E+03  0.00000000000E+00 0.  1.
       21    1    1    2  502  501 -0.47108995687E+02 -0.12199178889E+02 -0.17842860863E+02  0.51830928257E+02  0.00000000000E+00 0.  1.
#  0.2070275E+03  0.2070275E+03  0.1493185E+03  0.2533611E+02
# model=MadGraph_SM_170.9
</event>
</LesHouchesEvents>
